 Entering Link 1 = c:\G03W03\l1.exe PID=      2156.
  
 Copyright (c) 1988,1990,1992,1993,1995,1998,2003,2004,2007, Gaussian, Inc.
                  All Rights Reserved.
  
 This is the Gaussian(R) 03 program.  It is based on the
 the Gaussian(R) 98 system (copyright 1998, Gaussian, Inc.),
 the Gaussian(R) 94 system (copyright 1995, Gaussian, Inc.),
 the Gaussian 92(TM) system (copyright 1992, Gaussian, Inc.),
 the Gaussian 90(TM) system (copyright 1990, Gaussian, Inc.),
 the Gaussian 88(TM) system (copyright 1988, Gaussian, Inc.),
 the Gaussian 86(TM) system (copyright 1986, Carnegie Mellon
 University), and the Gaussian 82(TM) system (copyright 1983,
 Carnegie Mellon University). Gaussian is a federally registered
 trademark of Gaussian, Inc.
  
 This software contains proprietary and confidential information,
 including trade secrets, belonging to Gaussian, Inc.
  
 This software is provided under written license and may be
 used, copied, transmitted, or stored only in accord with that
 written license.
  
 The following legend is applicable only to US Government
 contracts under FAR:
  
                    RESTRICTED RIGHTS LEGEND
  
 Use, reproduction and disclosure by the US Government is
 subject to restrictions as set forth in subparagraphs (a)
 and (c) of the Commercial Computer Software - Restricted
 Rights clause in FAR 52.227-19.
  
 Gaussian, Inc.
 340 Quinnipiac St., Bldg. 40, Wallingford CT 06492
  
  
 ---------------------------------------------------------------
 Warning -- This program may not be used in any manner that
 competes with the business of Gaussian, Inc. or will provide
 assistance to any competitor of Gaussian, Inc.  The licensee
 of this program is prohibited from giving any competitor of
 Gaussian, Inc. access to this program.  By using this program,
 the user acknowledges that Gaussian, Inc. is engaged in the
 business of creating and licensing software in the field of
 computational chemistry and represents and warrants to the
 licensee that it is not a competitor of Gaussian, Inc. and that
 it will not use this program in any manner prohibited above.
 ---------------------------------------------------------------
  

 Cite this work as:
 Gaussian 03, Revision E.01,
 M. J. Frisch, G. W. Trucks, H. B. Schlegel, G. E. Scuseria, 
 M. A. Robb, J. R. Cheeseman, J. A. Montgomery, Jr., T. Vreven, 
 K. N. Kudin, J. C. Burant, J. M. Millam, S. S. Iyengar, J. Tomasi, 
 V. Barone, B. Mennucci, M. Cossi, G. Scalmani, N. Rega, 
 G. A. Petersson, H. Nakatsuji, M. Hada, M. Ehara, K. Toyota, 
 R. Fukuda, J. Hasegawa, M. Ishida, T. Nakajima, Y. Honda, O. Kitao, 
 H. Nakai, M. Klene, X. Li, J. E. Knox, H. P. Hratchian, J. B. Cross, 
 V. Bakken, C. Adamo, J. Jaramillo, R. Gomperts, R. E. Stratmann, 
 O. Yazyev, A. J. Austin, R. Cammi, C. Pomelli, J. W. Ochterski, 
 P. Y. Ayala, K. Morokuma, G. A. Voth, P. Salvador, J. J. Dannenberg, 
 V. G. Zakrzewski, S. Dapprich, A. D. Daniels, M. C. Strain, 
 O. Farkas, D. K. Malick, A. D. Rabuck, K. Raghavachari, 
 J. B. Foresman, J. V. Ortiz, Q. Cui, A. G. Baboul, S. Clifford, 
 J. Cioslowski, B. B. Stefanov, G. Liu, A. Liashenko, P. Piskorz, 
 I. Komaromi, R. L. Martin, D. J. Fox, T. Keith, M. A. Al-Laham, 
 C. Y. Peng, A. Nanayakkara, M. Challacombe, P. M. W. Gill, 
 B. Johnson, W. Chen, M. W. Wong, C. Gonzalez, and J. A. Pople, 
 Gaussian, Inc., Wallingford CT, 2004.
 
 ******************************************
 Gaussian 03:  IA32W-G03RevE.01 11-Sep-2007
                01-Apr-2016 
 ******************************************
 %chk=E:\YangJ\Amiano\Asp\ts1\s\Asp-S-opt-freq-ts1-6-31g.chk
 -----------------------------------------------
 # opt=(calcfc,ts) freq rb3lyp/6-31g iop(1/11=1)
 -----------------------------------------------
 1/5=1,10=4,11=1,14=-1,18=20,26=3,38=1/1,3;
 2/9=110,17=6,18=5,40=1/2;
 3/5=1,6=6,11=2,16=1,25=1,30=1,74=-5/1,2,3;
 4/7=1/1;
 5/5=2,38=5/2;
 8/6=4,10=90,11=11/1;
 11/6=1,8=1,9=11,15=111,16=1/1,2,10;
 10/6=1,7=6/2;
 6/7=2,8=2,9=2,10=2,28=1/1;
 7/10=1,18=20,25=1/1,2,3,16;
 1/5=1,10=4,11=1,14=-1,18=20/3(3);
 2/9=110/2;
 6/7=2,8=2,9=2,10=2,19=2,28=1/1;
 99//99;
 2/9=110/2;
 3/5=1,6=6,11=2,16=1,25=1,30=1,74=-5/1,2,3;
 4/5=5,7=1,16=3/1;
 5/5=2,38=5/2;
 7//1,2,3,16;
 1/5=1,11=1,14=-1,18=20/3(-5);
 2/9=110/2;
 6/7=2,8=2,9=2,10=2,19=2,28=1/1;
 99/9=1/99;
 ------------------------
 Asp-S-opt-freq-ts1-6-31g
 ------------------------
 Symbolic Z-matrix:
 Charge =  0 Multiplicity = 1
 N                     0.        0.        0. 
 H                     0.        0.        1.01628 
 C                     1.36205   0.       -0.51095 
 H                     1.32696  -0.16733  -1.59207 
 C                     2.01731   1.37886  -0.29096 
 C                     2.23171  -1.11559   0.08327 
 H                     1.22625   2.12601  -0.41022 
 H                     2.41954   1.49254   0.71772 
 C                     3.08155   1.71524  -1.31229 
 O                     1.85879  -1.93176   0.88749 
 O                     3.07218   1.37898  -2.4687 
 H                    -0.4803   -0.84927  -0.27859 
 O                     3.49621  -1.08528  -0.39744 
 H                     3.3939   -2.30451   0.6336 
 O                     4.04479   2.50905  -0.78747 
 H                     4.66048   2.72363  -1.50504 
 

 GradGradGradGradGradGradGradGradGradGradGradGradGradGradGradGradGradGrad
 Berny optimization.
 Initialization pass.
                           ----------------------------
                           !    Initial Parameters    !
                           ! (Angstroms and Degrees)  !
 --------------------------                            --------------------------
 ! Name  Definition              Value          Derivative Info.                !
 --------------------------------------------------------------------------------
 ! R1    R(1,2)                  1.0163         calculate D2E/DX2 analytically  !
 ! R2    R(1,3)                  1.4547         calculate D2E/DX2 analytically  !
 ! R3    R(1,12)                 1.0147         calculate D2E/DX2 analytically  !
 ! R4    R(3,4)                  1.0945         calculate D2E/DX2 analytically  !
 ! R5    R(3,5)                  1.5424         calculate D2E/DX2 analytically  !
 ! R6    R(3,6)                  1.5343         calculate D2E/DX2 analytically  !
 ! R7    R(5,7)                  1.0946         calculate D2E/DX2 analytically  !
 ! R8    R(5,8)                  1.0919         calculate D2E/DX2 analytically  !
 ! R9    R(5,9)                  1.5129         calculate D2E/DX2 analytically  !
 ! R10   R(6,10)                 1.205          calculate D2E/DX2 analytically  !
 ! R11   R(6,13)                 1.3531         calculate D2E/DX2 analytically  !
 ! R12   R(6,14)                 1.7513         calculate D2E/DX2 analytically  !
 ! R13   R(9,11)                 1.2043         calculate D2E/DX2 analytically  !
 ! R14   R(9,15)                 1.354          calculate D2E/DX2 analytically  !
 ! R15   R(10,14)                1.6            calculate D2E/DX2 analytically  !
 ! R16   R(13,14)                1.6            calculate D2E/DX2 analytically  !
 ! R17   R(15,16)                0.9695         calculate D2E/DX2 analytically  !
 ! A1    A(2,1,3)              110.5629         calculate D2E/DX2 analytically  !
 ! A2    A(2,1,12)             105.9361         calculate D2E/DX2 analytically  !
 ! A3    A(3,1,12)             110.2894         calculate D2E/DX2 analytically  !
 ! A4    A(1,3,4)              108.4764         calculate D2E/DX2 analytically  !
 ! A5    A(1,3,5)              110.3447         calculate D2E/DX2 analytically  !
 ! A6    A(1,3,6)              113.2458         calculate D2E/DX2 analytically  !
 ! A7    A(4,3,5)              106.9273         calculate D2E/DX2 analytically  !
 ! A8    A(4,3,6)              106.8317         calculate D2E/DX2 analytically  !
 ! A9    A(5,3,6)              110.7307         calculate D2E/DX2 analytically  !
 ! A10   A(3,5,7)              106.7161         calculate D2E/DX2 analytically  !
 ! A11   A(3,5,8)              112.4171         calculate D2E/DX2 analytically  !
 ! A12   A(3,5,9)              113.6611         calculate D2E/DX2 analytically  !
 ! A13   A(7,5,8)              107.2056         calculate D2E/DX2 analytically  !
 ! A14   A(7,5,9)              106.4424         calculate D2E/DX2 analytically  !
 ! A15   A(8,5,9)              109.9598         calculate D2E/DX2 analytically  !
 ! A16   A(3,6,10)             125.1394         calculate D2E/DX2 analytically  !
 ! A17   A(3,6,13)             112.0751         calculate D2E/DX2 analytically  !
 ! A18   A(3,6,14)             172.5166         calculate D2E/DX2 analytically  !
 ! A19   A(10,6,13)            122.785          calculate D2E/DX2 analytically  !
 ! A20   A(5,9,11)             125.4967         calculate D2E/DX2 analytically  !
 ! A21   A(5,9,15)             111.661          calculate D2E/DX2 analytically  !
 ! A22   A(11,9,15)            122.7784         calculate D2E/DX2 analytically  !
 ! A23   A(10,14,13)            89.2025         calculate D2E/DX2 analytically  !
 ! A24   A(9,15,16)            107.136          calculate D2E/DX2 analytically  !
 ! D1    D(2,1,3,4)            170.7246         calculate D2E/DX2 analytically  !
 ! D2    D(2,1,3,5)            -72.4481         calculate D2E/DX2 analytically  !
 ! D3    D(2,1,3,6)             52.3132         calculate D2E/DX2 analytically  !
 ! D4    D(12,1,3,4)            53.8951         calculate D2E/DX2 analytically  !
 ! D5    D(12,1,3,5)           170.7225         calculate D2E/DX2 analytically  !
 ! D6    D(12,1,3,6)           -64.5163         calculate D2E/DX2 analytically  !
 ! D7    D(1,3,5,7)            -34.6912         calculate D2E/DX2 analytically  !
 ! D8    D(1,3,5,8)             82.5662         calculate D2E/DX2 analytically  !
 ! D9    D(1,3,5,9)           -151.708          calculate D2E/DX2 analytically  !
 ! D10   D(4,3,5,7)             83.0939         calculate D2E/DX2 analytically  !
 ! D11   D(4,3,5,8)           -159.6487         calculate D2E/DX2 analytically  !
 ! D12   D(4,3,5,9)            -33.923          calculate D2E/DX2 analytically  !
 ! D13   D(6,3,5,7)           -160.8778         calculate D2E/DX2 analytically  !
 ! D14   D(6,3,5,8)            -43.6204         calculate D2E/DX2 analytically  !
 ! D15   D(6,3,5,9)             82.1054         calculate D2E/DX2 analytically  !
 ! D16   D(1,3,6,10)             0.3912         calculate D2E/DX2 analytically  !
 ! D17   D(1,3,6,13)          -179.368          calculate D2E/DX2 analytically  !
 ! D18   D(1,3,6,14)          -179.0033         calculate D2E/DX2 analytically  !
 ! D19   D(4,3,6,10)          -118.969          calculate D2E/DX2 analytically  !
 ! D20   D(4,3,6,13)            61.2718         calculate D2E/DX2 analytically  !
 ! D21   D(4,3,6,14)            61.6365         calculate D2E/DX2 analytically  !
 ! D22   D(5,3,6,10)           124.9433         calculate D2E/DX2 analytically  !
 ! D23   D(5,3,6,13)           -54.8159         calculate D2E/DX2 analytically  !
 ! D24   D(5,3,6,14)           -54.4512         calculate D2E/DX2 analytically  !
 ! D25   D(3,5,9,11)            33.3526         calculate D2E/DX2 analytically  !
 ! D26   D(3,5,9,15)          -149.4989         calculate D2E/DX2 analytically  !
 ! D27   D(7,5,9,11)           -83.8235         calculate D2E/DX2 analytically  !
 ! D28   D(7,5,9,15)            93.325          calculate D2E/DX2 analytically  !
 ! D29   D(8,5,9,11)           160.3718         calculate D2E/DX2 analytically  !
 ! D30   D(8,5,9,15)           -22.4797         calculate D2E/DX2 analytically  !
 ! D31   D(5,9,15,16)         -176.8544         calculate D2E/DX2 analytically  !
 ! D32   D(11,9,15,16)           0.3845         calculate D2E/DX2 analytically  !
 --------------------------------------------------------------------------------
 Trust Radius=3.00D-01 FncErr=1.00D-07 GrdErr=1.00D-06
 Number of steps in this run=  83 maximum allowed number of steps= 100.
 Search for a saddle point of order  1.
 GradGradGradGradGradGradGradGradGradGradGradGradGradGradGradGradGradGrad

                          Input orientation:                          
 ---------------------------------------------------------------------
 Center     Atomic     Atomic              Coordinates (Angstroms)
 Number     Number      Type              X           Y           Z
 ---------------------------------------------------------------------
    1          7             0        0.000000    0.000000    0.000000
    2          1             0        0.000000    0.000000    1.016275
    3          6             0        1.362046    0.000000   -0.510954
    4          1             0        1.326961   -0.167326   -1.592066
    5          6             0        2.017310    1.378862   -0.290963
    6          6             0        2.231706   -1.115594    0.083269
    7          1             0        1.226248    2.126011   -0.410216
    8          1             0        2.419540    1.492545    0.717719
    9          6             0        3.081550    1.715245   -1.312291
   10          8             0        1.858786   -1.931757    0.887492
   11          8             0        3.072177    1.378984   -2.468700
   12          1             0       -0.480303   -0.849266   -0.278594
   13          8             0        3.496214   -1.085284   -0.397437
   14          1             0        3.393904   -2.304506    0.633598
   15          8             0        4.044795    2.509048   -0.787474
   16          1             0        4.660478    2.723626   -1.505035
 ---------------------------------------------------------------------
                    Distance matrix (angstroms):
                    1          2          3          4          5
     1  N    0.000000
     2  H    1.016275   0.000000
     3  C    1.454732   2.046363   0.000000
     4  H    2.079303   2.931258   1.094547   0.000000
     5  C    2.460784   2.771222   1.542409   2.135451   0.000000
     6  C    2.496397   2.663750   1.534262   2.127093   2.531467
     7  H    2.488350   2.838747   2.132725   2.581920   1.094638
     8  H    2.932062   2.858496   2.203547   3.046967   1.091857
     9  C    3.762994   4.226137   2.557518   2.588616   1.512902
    10  O    2.823900   2.683906   2.435998   3.089379   3.517681
    11  O    4.175446   4.846125   2.942603   2.491052   2.419770
    12  H    1.014672   1.621305   2.041934   2.335906   3.347055
    13  O    3.682297   3.924275   2.396956   2.641106   2.875849
    14  H    4.150997   4.120167   3.278596   3.713943   4.039433
    15  O    4.824500   5.090108   3.683602   3.898328   2.373718
    16  H    5.603867   5.957785   4.391582   4.413334   3.204481
                    6          7          8          9         10
     6  C    0.000000
     7  H    3.429647   0.000000
     8  H    2.690762   1.759961   0.000000
     9  C    3.268558   2.103477   2.146809   0.000000
    10  O    1.204976   4.306929   3.474062   4.431119   0.000000
    11  O    3.666314   2.864064   3.254550   1.204343   4.867993
    12  H    2.748976   3.432480   3.858213   4.509107   2.828936
    13  O    1.353136   3.932598   3.007989   2.975209   2.246937
    14  H    1.751307   5.041603   3.920976   4.476879   1.599998
    15  O    4.145300   2.869363   2.437281   1.354029   5.225408
    16  H    4.812614   3.653725   3.387919   1.883347   5.936856
                   11         12         13         14         15
    11  O    0.000000
    12  H    4.730939   0.000000
    13  O    3.246931   3.985287   0.000000
    14  H    4.826578   4.237841   1.600000   0.000000
    15  O    2.247120   5.658069   3.656815   5.060968   0.000000
    16  H    2.293341   6.379448   4.134016   5.608928   0.969538
                   16
    16  H    0.000000
 Stoichiometry    C4H7NO4
 Framework group  C1[X(C4H7NO4)]
 Deg. of freedom    42
 Full point group                 C1
 Largest Abelian subgroup         C1      NOp   1
 Largest concise Abelian subgroup C1      NOp   1
                         Standard orientation:                         
 ---------------------------------------------------------------------
 Center     Atomic     Atomic              Coordinates (Angstroms)
 Number     Number      Type              X           Y           Z
 ---------------------------------------------------------------------
    1          7             0        1.590070    1.829583    0.058724
    2          1             0        2.017061    1.771581   -0.861672
    3          6             0        0.717026    0.689116    0.289752
    4          1             0        0.408259    0.695736    1.339824
    5          6             0       -0.566246    0.816041   -0.556492
    6          6             0        1.403109   -0.659708    0.036915
    7          1             0       -0.807794    1.882635   -0.604089
    8          1             0       -0.424179    0.470959   -1.582595
    9          6             0       -1.768120    0.131737    0.056778
   10          8             0        2.548078   -0.800994   -0.311006
   11          8             0       -1.991209    0.034547    1.236281
   12          1             0        2.357420    1.825451    0.722589
   13          8             0        0.566642   -1.702707    0.245370
   14          1             0        1.985654   -2.294573   -0.197462
   15          8             0       -2.622859   -0.321143   -0.890701
   16          1             0       -3.386741   -0.699622   -0.428921
 ---------------------------------------------------------------------
 Rotational constants (GHZ):      2.6408105      1.0846742      0.9088989
 Standard basis: 6-31G (6D, 7F)
 There are    95 symmetry adapted basis functions of A   symmetry.
 Integral buffers will be    262144 words long.
 Raffenetti 2 integral format.
 Two-electron integral symmetry is turned on.
    95 basis functions,   226 primitive gaussians,    95 cartesian basis functions
    35 alpha electrons       35 beta electrons
       nuclear repulsion energy       468.1788564191 Hartrees.
 NAtoms=   16 NActive=   16 NUniq=   16 SFac= 7.50D-01 NAtFMM=   80 NAOKFM=F Big=F
 One-electron integrals computed using PRISM.
 NBasis=    95 RedAO= T  NBF=    95
 NBsUse=    95 1.00D-06 NBFU=    95
 Harris functional with IExCor=  402 diagonalized for initial guess.
 ExpMin= 1.61D-01 ExpMax= 5.48D+03 ExpMxC= 8.25D+02 IAcc=1 IRadAn=         1 AccDes= 1.00D-06
 HarFok:  IExCor= 402 AccDes= 1.00D-06 IRadAn=         1 IDoV=1
 ScaDFX=  1.000000  1.000000  1.000000  1.000000
 Initial guess orbital symmetries:
       Occupied  (A) (A) (A) (A) (A) (A) (A) (A) (A) (A) (A) (A)
                 (A) (A) (A) (A) (A) (A) (A) (A) (A) (A) (A) (A)
                 (A) (A) (A) (A) (A) (A) (A) (A) (A) (A) (A)
       Virtual   (A) (A) (A) (A) (A) (A) (A) (A) (A) (A) (A) (A)
                 (A) (A) (A) (A) (A) (A) (A) (A) (A) (A) (A) (A)
                 (A) (A) (A) (A) (A) (A) (A) (A) (A) (A) (A) (A)
                 (A) (A) (A) (A) (A) (A) (A) (A) (A) (A) (A) (A)
                 (A) (A) (A) (A) (A) (A) (A) (A) (A) (A) (A) (A)
 The electronic state of the initial guess is 1-A.
 Requested convergence on RMS density matrix=1.00D-08 within 128 cycles.
 Requested convergence on MAX density matrix=1.00D-06.
 Requested convergence on             energy=1.00D-06.
 No special actions if energy rises.
 Integral accuracy reduced to 1.0D-05 until final iterations.
 Initial convergence to 1.0D-05 achieved.  Increase integral accuracy.
 SCF Done:  E(RB+HF-LYP) =  -512.030923685     A.U. after   18 cycles
             Convg  =    0.3976D-08             -V/T =  2.0052
             S**2   =   0.0000
 Range of M.O.s used for correlation:     1    95
 NBasis=    95 NAE=    35 NBE=    35 NFC=     0 NFV=     0
 NROrb=     95 NOA=    35 NOB=    35 NVA=    60 NVB=    60
 Symmetrizing basis deriv contribution to polar:
 IMax=3 JMax=2 DiffMx= 0.00D+00
 G2DrvN: will do   17 centers at a time, making    1 passes doing MaxLOS=1.
 FoFDir/FoFCou used for L=0 through L=1.
 DoAtom=TTTTTTTTTTTTTTTT
          Differentiating once with respect to electric field.
                with respect to dipole field.
          Differentiating once with respect to nuclear coordinates.
 Integrals replicated using symmetry in FoFDir.
 MinBra= 0 MaxBra= 1 Meth= 1.
 IRaf=       0 NMat=  51 IRICut=      51 DoRegI=T DoRafI=T ISym2E= 2 JSym2E=2.
          There are  51 degrees of freedom in the 1st order CPHF.
    48 vectors were produced by pass  0.
 AX will form  48 AO Fock derivatives at one time.
    48 vectors were produced by pass  1.
    48 vectors were produced by pass  2.
    48 vectors were produced by pass  3.
    19 vectors were produced by pass  4.
     3 vectors were produced by pass  5.
 Inv2:  IOpt= 1 Iter= 1 AM= 2.09D-15 Conv= 1.00D-12.
 Inverted reduced A of dimension  214 with in-core refinement.
 Isotropic polarizability for W=    0.000000       59.84 Bohr**3.
 End of Minotr Frequency-dependent properties file   721 does not exist.

 **********************************************************************

            Population analysis using the SCF density.

 **********************************************************************

 Orbital symmetries:
       Occupied  (A) (A) (A) (A) (A) (A) (A) (A) (A) (A) (A) (A)
                 (A) (A) (A) (A) (A) (A) (A) (A) (A) (A) (A) (A)
                 (A) (A) (A) (A) (A) (A) (A) (A) (A) (A) (A)
       Virtual   (A) (A) (A) (A) (A) (A) (A) (A) (A) (A) (A) (A)
                 (A) (A) (A) (A) (A) (A) (A) (A) (A) (A) (A) (A)
                 (A) (A) (A) (A) (A) (A) (A) (A) (A) (A) (A) (A)
                 (A) (A) (A) (A) (A) (A) (A) (A) (A) (A) (A) (A)
                 (A) (A) (A) (A) (A) (A) (A) (A) (A) (A) (A) (A)
 The electronic state is 1-A.
 Alpha  occ. eigenvalues --  -19.21314 -19.20058 -19.19452 -19.15233 -14.32994
 Alpha  occ. eigenvalues --  -10.34596 -10.33716 -10.25472 -10.21378  -1.16221
 Alpha  occ. eigenvalues --   -1.13880  -1.04753  -1.02150  -0.92357  -0.79518
 Alpha  occ. eigenvalues --   -0.70442  -0.62589  -0.56833  -0.53637  -0.52650
 Alpha  occ. eigenvalues --   -0.49895  -0.49072  -0.47939  -0.47467  -0.46691
 Alpha  occ. eigenvalues --   -0.43293  -0.41194  -0.39168  -0.38272  -0.36998
 Alpha  occ. eigenvalues --   -0.32785  -0.32353  -0.32011  -0.28780  -0.25284
 Alpha virt. eigenvalues --   -0.08258  -0.02682   0.00365   0.06493   0.07452
 Alpha virt. eigenvalues --    0.11385   0.13055   0.14836   0.16353   0.20632
 Alpha virt. eigenvalues --    0.21242   0.22560   0.23410   0.29299   0.30435
 Alpha virt. eigenvalues --    0.35189   0.36613   0.51715   0.52444   0.55844
 Alpha virt. eigenvalues --    0.57731   0.59747   0.60694   0.63011   0.64764
 Alpha virt. eigenvalues --    0.68408   0.70008   0.73260   0.74023   0.75396
 Alpha virt. eigenvalues --    0.78254   0.79278   0.81299   0.82653   0.88634
 Alpha virt. eigenvalues --    0.89221   0.91520   0.92267   0.93387   0.94171
 Alpha virt. eigenvalues --    0.95417   0.96678   0.97672   0.99227   1.02404
 Alpha virt. eigenvalues --    1.04637   1.07554   1.08680   1.10174   1.13105
 Alpha virt. eigenvalues --    1.21785   1.25268   1.30957   1.41063   1.54017
 Alpha virt. eigenvalues --    1.72094   1.74640   1.79465   1.90350   2.01032
          Condensed to atoms (all electrons):
              1          2          3          4          5          6
     1  N    6.869724   0.325148   0.281805  -0.037502  -0.063944  -0.073044
     2  H    0.325148   0.477823  -0.051458   0.005790  -0.003803  -0.002172
     3  C    0.281805  -0.051458   5.417796   0.379444   0.255108   0.101479
     4  H   -0.037502   0.005790   0.379444   0.503569  -0.041161  -0.044711
     5  C   -0.063944  -0.003803   0.255108  -0.041161   5.559347  -0.065017
     6  C   -0.073044  -0.002172   0.101479  -0.044711  -0.065017   5.025504
     7  H    0.004480  -0.000693  -0.030711  -0.001888   0.355888   0.006517
     8  H    0.000559   0.002039  -0.037994   0.004408   0.345324  -0.006762
     9  C    0.003425  -0.000076  -0.021670  -0.000399   0.155703   0.006617
    10  O   -0.007300   0.004406  -0.092956   0.000549  -0.000284   0.352190
    11  O    0.000053  -0.000004   0.001697   0.013848  -0.115604  -0.001282
    12  H    0.327897  -0.039525  -0.048983  -0.006386   0.007036   0.002776
    13  O    0.003883   0.000109  -0.085946   0.001297   0.005665   0.222056
    14  H   -0.001051  -0.000055   0.019478  -0.000445  -0.000857   0.017514
    15  O   -0.000026   0.000000   0.001747   0.000501  -0.119545   0.000345
    16  H    0.000002   0.000000  -0.000273  -0.000018   0.012096   0.000007
              7          8          9         10         11         12
     1  N    0.004480   0.000559   0.003425  -0.007300   0.000053   0.327897
     2  H   -0.000693   0.002039  -0.000076   0.004406  -0.000004  -0.039525
     3  C   -0.030711  -0.037994  -0.021670  -0.092956   0.001697  -0.048983
     4  H   -0.001888   0.004408  -0.000399   0.000549   0.013848  -0.006386
     5  C    0.355888   0.345324   0.155703  -0.000284  -0.115604   0.007036
     6  C    0.006517  -0.006762   0.006617   0.352190  -0.001282   0.002776
     7  H    0.503937  -0.025417  -0.025015  -0.000065  -0.000302   0.000235
     8  H   -0.025417   0.550351  -0.014124   0.000276   0.003093  -0.000191
     9  C   -0.025015  -0.014124   4.729178   0.000056   0.520981  -0.000218
    10  O   -0.000065   0.000276   0.000056   8.243619  -0.000004   0.002210
    11  O   -0.000302   0.003093   0.520981  -0.000004   8.083896   0.000007
    12  H    0.000235  -0.000191  -0.000218   0.002210   0.000007   0.466514
    13  O    0.000068   0.000157   0.006090  -0.144379  -0.000704   0.000046
    14  H    0.000017  -0.000123   0.000066   0.046642   0.000010  -0.000008
    15  O    0.001439   0.004956   0.161240   0.000000  -0.119198   0.000001
    16  H   -0.000319  -0.000281  -0.015281   0.000000   0.006882   0.000000
             13         14         15         16
     1  N    0.003883  -0.001051  -0.000026   0.000002
     2  H    0.000109  -0.000055   0.000000   0.000000
     3  C   -0.085946   0.019478   0.001747  -0.000273
     4  H    0.001297  -0.000445   0.000501  -0.000018
     5  C    0.005665  -0.000857  -0.119545   0.012096
     6  C    0.222056   0.017514   0.000345   0.000007
     7  H    0.000068   0.000017   0.001439  -0.000319
     8  H    0.000157  -0.000123   0.004956  -0.000281
     9  C    0.006090   0.000066   0.161240  -0.015281
    10  O   -0.144379   0.046642   0.000000   0.000000
    11  O   -0.000704   0.000010  -0.119198   0.006882
    12  H    0.000046  -0.000008   0.000001   0.000000
    13  O    8.381767   0.084827  -0.000439  -0.000024
    14  H    0.084827   0.525827   0.000001   0.000000
    15  O   -0.000439   0.000001   8.381060   0.227701
    16  H   -0.000024   0.000000   0.227701   0.387584
 Mulliken atomic charges:
              1
     1  N   -0.634106
     2  H    0.282470
     3  C   -0.088564
     4  H    0.223103
     5  C   -0.285952
     6  C    0.457984
     7  H    0.211828
     8  H    0.173728
     9  C    0.493429
    10  O   -0.404960
    11  O   -0.393370
    12  H    0.288589
    13  O   -0.474473
    14  H    0.308153
    15  O   -0.539782
    16  H    0.381923
 Sum of Mulliken charges=   0.00000
 Atomic charges with hydrogens summed into heavy atoms:
              1
     1  N   -0.063048
     2  H    0.000000
     3  C    0.134539
     4  H    0.000000
     5  C    0.099603
     6  C    0.457984
     7  H    0.000000
     8  H    0.000000
     9  C    0.493429
    10  O   -0.096807
    11  O   -0.393370
    12  H    0.000000
    13  O   -0.474473
    14  H    0.000000
    15  O   -0.157858
    16  H    0.000000
 Sum of Mulliken charges=   0.00000
 APT atomic charges:
              1
     1  N   -0.475300
     2  H    0.163211
     3  C    0.372478
     4  H    0.049097
     5  C   -0.056217
     6  C    0.564756
     7  H    0.039828
     8  H    0.019411
     9  C    1.084032
    10  O   -0.552846
    11  O   -0.696612
    12  H    0.153717
    13  O   -0.532580
    14  H    0.272187
    15  O   -0.692141
    16  H    0.286979
 Sum of APT charges=   0.00000
 APT Atomic charges with hydrogens summed into heavy atoms:
              1
     1  N   -0.158371
     2  H    0.000000
     3  C    0.421575
     4  H    0.000000
     5  C    0.003022
     6  C    0.564756
     7  H    0.000000
     8  H    0.000000
     9  C    1.084032
    10  O   -0.280659
    11  O   -0.696612
    12  H    0.000000
    13  O   -0.532580
    14  H    0.000000
    15  O   -0.405162
    16  H    0.000000
 Sum of APT charges=   0.00000
 Electronic spatial extent (au):  <R**2>=  1285.4396
 Charge=     0.0000 electrons
 Dipole moment (field-independent basis, Debye):
    X=     0.8475    Y=     0.1254    Z=    -1.3780  Tot=     1.6226
 Quadrupole moment (field-independent basis, Debye-Ang):
   XX=   -46.2303   YY=   -54.0120   ZZ=   -55.1754
   XY=     0.5400   XZ=     3.2191   YZ=     0.0961
 Traceless Quadrupole moment (field-independent basis, Debye-Ang):
   XX=     5.5756   YY=    -2.2061   ZZ=    -3.3695
   XY=     0.5400   XZ=     3.2191   YZ=     0.0961
 Octapole moment (field-independent basis, Debye-Ang**2):
  XXX=   -38.4412  YYY=   -24.3564  ZZZ=    -2.1431  XYY=     2.7339
  XXY=    -6.6917  XXZ=     0.9915  XZZ=    15.4743  YZZ=     2.3161
  YYZ=    -4.4060  XYZ=     0.4574
 Hexadecapole moment (field-independent basis, Debye-Ang**3):
 XXXX=  -859.2092 YYYY=  -417.2466 ZZZZ=  -166.7058 XXXY=    67.6012
 XXXZ=    24.7419 YYYX=   -36.6406 YYYZ=     2.6427 ZZZX=     2.5328
 ZZZY=     0.1992 XXYY=  -181.5974 XXZZ=  -212.6023 YYZZ=   -89.3721
 XXYZ=     2.1094 YYXZ=    -3.2432 ZZXY=     5.3579
 N-N= 4.681788564191D+02 E-N=-2.137335744601D+03  KE= 5.093961586086D+02
  Exact polarizability:  70.199   2.602  60.638  -2.645   0.826  48.680
 Approx polarizability: 108.467  10.486  84.860 -12.071   0.177  82.453
 ***** Axes restored to original set *****
 -------------------------------------------------------------------
 Center     Atomic                   Forces (Hartrees/Bohr)
 Number     Number              X              Y              Z
 -------------------------------------------------------------------
    1          7          -0.001155769   -0.007635449    0.004822562
    2          1          -0.002386748    0.006090186    0.004845182
    3          6          -0.002185850    0.001823170    0.000484535
    4          1           0.000502300   -0.000851279   -0.001075224
    5          6           0.001660045    0.001971617    0.000137070
    6          6           0.042298594    0.103181475   -0.099108280
    7          1          -0.002893613    0.000120306    0.000678081
    8          1           0.001113759   -0.000202401    0.000436289
    9          6          -0.017465324   -0.003601132    0.043009461
   10          8           0.000894711   -0.073489641    0.059302365
   11          8          -0.000803578   -0.013534755   -0.046776305
   12          1          -0.006352656   -0.000750909   -0.005134375
   13          8          -0.029939116   -0.054507741    0.055377620
   14          1          -0.001907436    0.027156524   -0.021265691
   15          8           0.005379897    0.007610436    0.009952692
   16          1           0.013240786    0.006619595   -0.005685981
 -------------------------------------------------------------------
 Cartesian Forces:  Max     0.103181475 RMS     0.030456512

 GradGradGradGradGradGradGradGradGradGradGradGradGradGradGradGradGradGrad
 Berny optimization.
 Internal  Forces:  Max     0.086606605 RMS     0.015511923
 Search for a saddle point.
 Step number   1 out of a maximum of  83
 All quantities printed in internal units (Hartrees-Bohrs-Radians)
 Swaping is turned off.
 Second derivative matrix not updated -- analytic derivatives used.
     Eigenvalues ---   -0.08891   0.00006   0.00072   0.00134   0.00275
     Eigenvalues ---    0.00647   0.02004   0.02286   0.03337   0.03757
     Eigenvalues ---    0.04212   0.04508   0.04973   0.05055   0.05420
     Eigenvalues ---    0.08234   0.11704   0.12247   0.13644   0.15677
     Eigenvalues ---    0.16133   0.16607   0.16748   0.18226   0.19798
     Eigenvalues ---    0.20544   0.22338   0.25737   0.27033   0.30310
     Eigenvalues ---    0.34017   0.34176   0.34453   0.35035   0.36086
     Eigenvalues ---    0.40203   0.44972   0.45362   0.45950   0.52233
     Eigenvalues ---    0.82297   0.951821000.000001000.000001000.00000
     Eigenvalues --- 1000.000001000.000001000.000001000.000001000.00000
     Eigenvalues --- 1000.000001000.000001000.000001000.000001000.00000
     Eigenvalues --- 1000.000001000.000001000.000001000.000001000.00000
     Eigenvalues --- 1000.000001000.000001000.000001000.000001000.00000
     Eigenvalues --- 1000.000001000.000001000.000001000.000001000.00000
     Eigenvalues --- 1000.000001000.000001000.00000
 Eigenvectors required to have negative eigenvalues:
                          R1        R2        R3        R4        R5
         1             -0.00039   0.00643   0.00002  -0.00155  -0.00342
                          R6        R7        R8        R9        R10
         1              0.00411  -0.00002  -0.00051  -0.00001   0.06611
                          R11       R12       R13       R14       R15
         1             -0.11566  -0.01997  -0.00078   0.00009  -0.64054
                          R16       R17       A1        A2        A3
         1              0.68930  -0.00016   0.00453   0.00257   0.00274
                          A4        A5        A6        A7        A8
         1             -0.00315  -0.00263   0.01921   0.00436  -0.00696
                          A9        A10       A11       A12       A13
         1             -0.01154   0.00139  -0.00063  -0.00284   0.00064
                          A14       A15       A16       A17       A18
         1              0.00022   0.00146  -0.01541   0.00295   0.30617
                          A19       A20       A21       A22       A23
         1              0.01245   0.00035  -0.00095   0.00047  -0.03071
                          A24       D1        D2        D3        D4
         1             -0.00074   0.00442   0.00637   0.00346  -0.00313
                          D5        D6        D7        D8        D9
         1             -0.00118  -0.00408   0.00679   0.00808   0.00721
                          D10       D11       D12       D13       D14
         1              0.00414   0.00543   0.00456  -0.00771  -0.00642
                          D15       D16       D17       D18       D19
         1             -0.00728   0.00313   0.00285  -0.00016   0.00034
                          D20       D21       D22       D23       D24
         1              0.00005  -0.00295   0.00514   0.00485   0.00184
                          D25       D26       D27       D28       D29
         1              0.00502   0.00199   0.00476   0.00172   0.00315
                          D30       D31       D32
         1              0.00011  -0.00024  -0.00318
 RFO step:  Lambda0=1.289042732D-03 Lambda=-4.94383986D-02.
 Linear search not attempted -- option 19 set.
 Maximum step size (   0.300) exceeded in Quadratic search.
    -- Step size scaled by   0.514
 Iteration  1 RMS(Cart)=  0.02524528 RMS(Int)=  0.00119401
 Iteration  2 RMS(Cart)=  0.00104630 RMS(Int)=  0.00016049
 Iteration  3 RMS(Cart)=  0.00000192 RMS(Int)=  0.00015995
 Iteration  4 RMS(Cart)=  0.00000000 RMS(Int)=  0.00015995
 Variable       Old X    -DE/DX   Delta X   Delta X   Delta X     New X
                                 (Linear)    (Quad)   (Total)
    R1        1.92048   0.00485   0.00000   0.00272   0.00272   1.92321
    R2        2.74904   0.01086   0.00000   0.00778   0.00778   2.75683
    R3        1.91745   0.00504   0.00000   0.00287   0.00287   1.92032
    R4        2.06839   0.00118   0.00000   0.00218   0.00218   2.07057
    R5        2.91473  -0.00056   0.00000   0.00206   0.00206   2.91679
    R6        2.89934   0.00252   0.00000  -0.02346  -0.02346   2.87587
    R7        2.06857   0.00210   0.00000   0.00221   0.00221   2.07078
    R8        2.06331   0.00079   0.00000   0.00068   0.00068   2.06399
    R9        2.85897  -0.00074   0.00000  -0.00381  -0.00381   2.85516
   R10        2.27707   0.08661   0.00000   0.06865   0.06843   2.34550
   R11        2.55706  -0.04057   0.00000  -0.05664  -0.05691   2.50014
   R12        3.30949   0.01701   0.00000  -0.05876  -0.05822   3.25127
   R13        2.27588   0.04870   0.00000   0.02432   0.02432   2.30019
   R14        2.55874   0.02324   0.00000   0.01752   0.01752   2.57627
   R15        3.02356  -0.00982   0.00000  -0.18345  -0.18366   2.83990
   R16        3.02356  -0.04283   0.00000  -0.12386  -0.12383   2.89973
   R17        1.83216   0.01408   0.00000   0.01116   0.01116   1.84332
    A1        1.92969   0.00489   0.00000   0.01393   0.01373   1.94341
    A2        1.84893   0.00062   0.00000   0.01490   0.01451   1.86344
    A3        1.92491   0.00520   0.00000   0.01438   0.01418   1.93909
    A4        1.89327  -0.00077   0.00000  -0.00091  -0.00091   1.89236
    A5        1.92588  -0.00007   0.00000   0.00359   0.00361   1.92949
    A6        1.97651   0.00330   0.00000   0.00947   0.00949   1.98600
    A7        1.86623   0.00095   0.00000  -0.00095  -0.00098   1.86526
    A8        1.86456  -0.00071   0.00000  -0.00187  -0.00190   1.86267
    A9        1.93261  -0.00278   0.00000  -0.00991  -0.00993   1.92268
   A10        1.86255  -0.00053   0.00000  -0.00259  -0.00256   1.85999
   A11        1.96205   0.00180   0.00000   0.00308   0.00306   1.96511
   A12        1.98376  -0.00448   0.00000  -0.01154  -0.01155   1.97221
   A13        1.87109  -0.00030   0.00000   0.00180   0.00179   1.87288
   A14        1.85777   0.00315   0.00000   0.01064   0.01062   1.86839
   A15        1.91916   0.00064   0.00000  -0.00020  -0.00022   1.91894
   A16        2.18410   0.00988   0.00000   0.01006   0.00969   2.19378
   A17        1.95608   0.02715   0.00000   0.08824   0.08836   2.04444
   A18        3.01098   0.00992   0.00000   0.06083   0.06034   3.07132
   A19        2.14300  -0.03703   0.00000  -0.09831  -0.09805   2.04495
   A20        2.19033  -0.00048   0.00000   0.00019   0.00019   2.19052
   A21        1.94885   0.00022   0.00000   0.00090   0.00090   1.94975
   A22        2.14289   0.00025   0.00000  -0.00104  -0.00104   2.14185
   A23        1.55688   0.01522   0.00000   0.05160   0.05240   1.60927
   A24        1.86988   0.01332   0.00000   0.02244   0.02244   1.89231
    D1        2.97971   0.00347   0.00000   0.01820   0.01831   2.99801
    D2       -1.26446   0.00412   0.00000   0.01854   0.01863  -1.24583
    D3        0.91304   0.00286   0.00000   0.01534   0.01545   0.92849
    D4        0.94065  -0.00340   0.00000  -0.01723  -0.01733   0.92332
    D5        2.97967  -0.00275   0.00000  -0.01689  -0.01701   2.96266
    D6       -1.12602  -0.00402   0.00000  -0.02009  -0.02018  -1.14621
    D7       -0.60548   0.00104   0.00000   0.00175   0.00176  -0.60372
    D8        1.44105   0.00134   0.00000   0.00404   0.00403   1.44508
    D9       -2.64780   0.00004   0.00000  -0.00316  -0.00317  -2.65098
   D10        1.45026   0.00063   0.00000   0.00205   0.00205   1.45231
   D11       -2.78640   0.00093   0.00000   0.00433   0.00433  -2.78207
   D12       -0.59207  -0.00037   0.00000  -0.00287  -0.00288  -0.59495
   D13       -2.80785  -0.00114   0.00000  -0.00590  -0.00589  -2.81373
   D14       -0.76132  -0.00083   0.00000  -0.00362  -0.00361  -0.76493
   D15        1.43301  -0.00214   0.00000  -0.01082  -0.01082   1.42219
   D16        0.00683   0.00038   0.00000   0.00376   0.00377   0.01060
   D17       -3.13056   0.00016   0.00000   0.00454   0.00455  -3.12602
   D18       -3.12420   0.00012   0.00000  -0.00013  -0.00012  -3.12432
   D19       -2.07640  -0.00014   0.00000   0.00055   0.00056  -2.07585
   D20        1.06940  -0.00036   0.00000   0.00132   0.00133   1.07072
   D21        1.07576  -0.00040   0.00000  -0.00334  -0.00334   1.07242
   D22        2.18067   0.00059   0.00000   0.00792   0.00790   2.18857
   D23       -0.95672   0.00038   0.00000   0.00869   0.00867  -0.94804
   D24       -0.95035   0.00034   0.00000   0.00403   0.00401  -0.94634
   D25        0.58211  -0.00020   0.00000  -0.00122  -0.00124   0.58087
   D26       -2.60925  -0.00036   0.00000  -0.00036  -0.00039  -2.60964
   D27       -1.46300   0.00092   0.00000   0.00153   0.00155  -1.46144
   D28        1.62883   0.00076   0.00000   0.00238   0.00241   1.63124
   D29        2.79902  -0.00077   0.00000  -0.00630  -0.00630   2.79271
   D30       -0.39234  -0.00093   0.00000  -0.00545  -0.00545  -0.39779
   D31       -3.08669  -0.00041   0.00000  -0.00464  -0.00464  -3.09133
   D32        0.00671  -0.00059   0.00000  -0.00378  -0.00378   0.00293
         Item               Value     Threshold  Converged?
 Maximum Force            0.086607     0.000450     NO 
 RMS     Force            0.015512     0.000300     NO 
 Maximum Displacement     0.095518     0.001800     NO 
 RMS     Displacement     0.024998     0.001200     NO 
 Predicted change in Energy=-2.050952D-02
 GradGradGradGradGradGradGradGradGradGradGradGradGradGradGradGradGradGrad

                          Input orientation:                          
 ---------------------------------------------------------------------
 Center     Atomic     Atomic              Coordinates (Angstroms)
 Number     Number      Type              X           Y           Z
 ---------------------------------------------------------------------
    1          7             0        0.001674   -0.010870    0.003341
    2          1             0       -0.008751   -0.001898    1.020964
    3          6             0        1.365641    0.004249   -0.513970
    4          1             0        1.326889   -0.154790   -1.597371
    5          6             0        2.015974    1.385526   -0.286953
    6          6             0        2.251423   -1.092985    0.058292
    7          1             0        1.217825    2.128419   -0.395889
    8          1             0        2.427173    1.495490    0.718909
    9          6             0        3.072681    1.716612   -1.314827
   10          8             0        1.898707   -1.953408    0.880365
   11          8             0        3.055231    1.373358   -2.482506
   12          1             0       -0.490616   -0.850937   -0.287480
   13          8             0        3.508523   -1.129405   -0.352505
   14          1             0        3.343358   -2.289352    0.638376
   15          8             0        4.048391    2.514950   -0.795946
   16          1             0        4.677289    2.735627   -1.508179
 ---------------------------------------------------------------------
                    Distance matrix (angstroms):
                    1          2          3          4          5
     1  N    0.000000
     2  H    1.017717   0.000000
     3  C    1.458851   2.060344   0.000000
     4  H    2.083071   2.943296   1.095698   0.000000
     5  C    2.468115   2.781205   1.543501   2.136495   0.000000
     6  C    2.497071   2.688048   1.521846   2.115702   2.513494
     7  H    2.492983   2.837290   2.132579   2.582344   1.095809
     8  H    2.943501   2.875262   2.206953   3.049460   1.092216
     9  C    3.762026   4.231361   2.547065   2.574833   1.510885
    10  O    2.853307   2.732500   2.461859   3.114671   3.539049
    11  O    4.173695   4.853207   2.933310   2.471006   2.429127
    12  H    1.016189   1.632510   2.056291   2.346010   3.359280
    13  O    3.698072   3.940674   2.429647   2.694270   2.925215
    14  H    4.094094   4.076206   3.240350   3.690673   4.015335
    15  O    4.836791   5.108433   3.685143   3.895687   2.380209
    16  H    5.629326   5.987452   4.406346   4.425794   3.224402
                    6          7          8          9         10
     6  C    0.000000
     7  H    3.413510   0.000000
     8  H    2.677220   1.762355   0.000000
     9  C    3.233227   2.110574   2.145148   0.000000
    10  O    1.241185   4.330559   3.492885   4.434651   0.000000
    11  O    3.631062   2.880998   3.264725   1.217210   4.869684
    12  H    2.774334   3.436144   3.877116   4.510525   2.878918
    13  O    1.323019   3.982788   3.034357   3.035759   2.188711
    14  H    1.720498   5.010419   3.894986   4.464977   1.502809
    15  O    4.120196   2.884711   2.441810   1.363303   5.234251
    16  H    4.795511   3.684261   3.400130   1.910640   5.950858
                   11         12         13         14         15
    11  O    0.000000
    12  H    4.726379   0.000000
    13  O    3.317560   4.009350   0.000000
    14  H    4.820619   4.198287   1.534471   0.000000
    15  O    2.265852   5.673652   3.710717   5.063168   0.000000
    16  H    2.331558   6.407870   4.200008   5.624721   0.975442
                   16
    16  H    0.000000
 Stoichiometry    C4H7NO4
 Framework group  C1[X(C4H7NO4)]
 Deg. of freedom    42
 Full point group                 C1
 Largest Abelian subgroup         C1      NOp   1
 Largest concise Abelian subgroup C1      NOp   1
                         Standard orientation:                         
 ---------------------------------------------------------------------
 Center     Atomic     Atomic              Coordinates (Angstroms)
 Number     Number      Type              X           Y           Z
 ---------------------------------------------------------------------
    1          7             0        1.575389    1.848785    0.044311
    2          1             0        2.001565    1.802325   -0.878707
    3          6             0        0.700911    0.705875    0.283667
    4          1             0        0.386486    0.724212    1.333122
    5          6             0       -0.580417    0.815876   -0.569851
    6          6             0        1.372152   -0.639993    0.051091
    7          1             0       -0.823848    1.882491   -0.632071
    8          1             0       -0.436781    0.455262   -1.590763
    9          6             0       -1.769000    0.126080    0.058021
   10          8             0        2.550949   -0.810626   -0.297997
   11          8             0       -1.986360    0.039393    1.252525
   12          1             0        2.336162    1.874665    0.717507
   13          8             0        0.632934   -1.722265    0.231710
   14          1             0        2.025923   -2.214068   -0.183396
   15          8             0       -2.630148   -0.352507   -0.884303
   16          1             0       -3.398111   -0.745375   -0.428920
 ---------------------------------------------------------------------
 Rotational constants (GHZ):      2.5995791      1.0832260      0.9043379
 Standard basis: 6-31G (6D, 7F)
 There are    95 symmetry adapted basis functions of A   symmetry.
 Integral buffers will be    262144 words long.
 Raffenetti 2 integral format.
 Two-electron integral symmetry is turned on.
    95 basis functions,   226 primitive gaussians,    95 cartesian basis functions
    35 alpha electrons       35 beta electrons
       nuclear repulsion energy       467.0318896433 Hartrees.
 NAtoms=   16 NActive=   16 NUniq=   16 SFac= 7.50D-01 NAtFMM=   80 NAOKFM=F Big=F
 One-electron integrals computed using PRISM.
 NBasis=    95 RedAO= T  NBF=    95
 NBsUse=    95 1.00D-06 NBFU=    95
 Initial guess read from the read-write file:
 Initial guess orbital symmetries:
       Occupied  (A) (A) (A) (A) (A) (A) (A) (A) (A) (A) (A) (A)
                 (A) (A) (A) (A) (A) (A) (A) (A) (A) (A) (A) (A)
                 (A) (A) (A) (A) (A) (A) (A) (A) (A) (A) (A)
       Virtual   (A) (A) (A) (A) (A) (A) (A) (A) (A) (A) (A) (A)
                 (A) (A) (A) (A) (A) (A) (A) (A) (A) (A) (A) (A)
                 (A) (A) (A) (A) (A) (A) (A) (A) (A) (A) (A) (A)
                 (A) (A) (A) (A) (A) (A) (A) (A) (A) (A) (A) (A)
                 (A) (A) (A) (A) (A) (A) (A) (A) (A) (A) (A) (A)
 Harris functional with IExCor=  402 diagonalized for initial guess.
 ExpMin= 1.61D-01 ExpMax= 5.48D+03 ExpMxC= 8.25D+02 IAcc=1 IRadAn=         1 AccDes= 1.00D-06
 HarFok:  IExCor= 402 AccDes= 1.00D-06 IRadAn=         1 IDoV=1
 ScaDFX=  1.000000  1.000000  1.000000  1.000000
 Requested convergence on RMS density matrix=1.00D-08 within 128 cycles.
 Requested convergence on MAX density matrix=1.00D-06.
 Requested convergence on             energy=1.00D-06.
 No special actions if energy rises.
 Integral accuracy reduced to 1.0D-05 until final iterations.
 Initial convergence to 1.0D-05 achieved.  Increase integral accuracy.
 SCF Done:  E(RB+HF-LYP) =  -512.051383754     A.U. after   15 cycles
             Convg  =    0.2580D-08             -V/T =  2.0054
             S**2   =   0.0000
 ***** Axes restored to original set *****
 -------------------------------------------------------------------
 Center     Atomic                   Forces (Hartrees/Bohr)
 Number     Number              X              Y              Z
 -------------------------------------------------------------------
    1          7           0.000495027   -0.007148442    0.004351616
    2          1          -0.001461117    0.004773175    0.002474598
    3          6          -0.003101311    0.000475591    0.001513186
    4          1           0.000289279   -0.000377986   -0.000638272
    5          6           0.000973961    0.001917368   -0.000348620
    6          6           0.025672126    0.058998201   -0.056871737
    7          1          -0.001694794   -0.000076692    0.000365279
    8          1           0.000797830   -0.000381240    0.000183968
    9          6          -0.009259302   -0.002179783    0.023284100
   10          8           0.005995869   -0.046390336    0.034765276
   11          8          -0.000533499   -0.007338134   -0.024805214
   12          1          -0.003981840    0.000514381   -0.003961121
   13          8          -0.014748953   -0.032807605    0.031967052
   14          1          -0.009520653    0.022302919   -0.014259799
   15          8           0.002674178    0.004147557    0.004673069
   16          1           0.007403199    0.003571025   -0.002693380
 -------------------------------------------------------------------
 Cartesian Forces:  Max     0.058998201 RMS     0.017944122

 GradGradGradGradGradGradGradGradGradGradGradGradGradGradGradGradGradGrad
 Berny optimization.
 Internal  Forces:  Max     0.051535713 RMS     0.009063723
 Search for a saddle point.
 Step number   2 out of a maximum of  83
 All quantities printed in internal units (Hartrees-Bohrs-Radians)
 Swaping is turned off.
 Update second derivatives using D2CorX and points  1  2
     Eigenvalues ---   -0.09099   0.00006   0.00072   0.00134   0.00275
     Eigenvalues ---    0.00647   0.02286   0.02495   0.03322   0.03756
     Eigenvalues ---    0.04212   0.04508   0.04974   0.05056   0.05420
     Eigenvalues ---    0.08233   0.11705   0.12246   0.13633   0.15690
     Eigenvalues ---    0.16151   0.16627   0.16917   0.18232   0.19799
     Eigenvalues ---    0.20545   0.22339   0.25736   0.27141   0.30310
     Eigenvalues ---    0.34088   0.34449   0.34520   0.35035   0.36086
     Eigenvalues ---    0.40190   0.44968   0.45361   0.45950   0.52224
     Eigenvalues ---    0.81713   0.951301000.000001000.000001000.00000
     Eigenvalues --- 1000.000001000.000001000.000001000.000001000.00000
     Eigenvalues --- 1000.000001000.000001000.000001000.000001000.00000
     Eigenvalues --- 1000.000001000.000001000.000001000.000001000.00000
     Eigenvalues --- 1000.000001000.000001000.000001000.000001000.00000
     Eigenvalues --- 1000.000001000.000001000.000001000.000001000.00000
     Eigenvalues --- 1000.000001000.000001000.00000
 Eigenvectors required to have negative eigenvalues:
                          R1        R2        R3        R4        R5
         1             -0.00055   0.00614  -0.00014  -0.00136  -0.00281
                          R6        R7        R8        R9        R10
         1              0.00266   0.00003  -0.00048  -0.00020   0.07342
                          R11       R12       R13       R14       R15
         1             -0.11237  -0.02672   0.00029   0.00074  -0.66000
                          R16       R17       A1        A2        A3
         1              0.66987   0.00024   0.00611   0.00468   0.00439
                          A4        A5        A6        A7        A8
         1             -0.00297  -0.00220   0.01935   0.00374  -0.00698
                          A9        A10       A11       A12       A13
         1             -0.01177   0.00104  -0.00063  -0.00345   0.00100
                          A14       A15       A16       A17       A18
         1              0.00116   0.00120  -0.01963   0.00734   0.30733
                          A19       A20       A21       A22       A23
         1              0.01229   0.00035  -0.00099   0.00052  -0.01808
                          A24       D1        D2        D3        D4
         1              0.00085   0.00713   0.00866   0.00594  -0.00566
                          D5        D6        D7        D8        D9
         1             -0.00414  -0.00685   0.00665   0.00817   0.00648
                          D10       D11       D12       D13       D14
         1              0.00409   0.00561   0.00392  -0.00812  -0.00660
                          D15       D16       D17       D18       D19
         1             -0.00829   0.00386   0.00353  -0.00015   0.00076
                          D20       D21       D22       D23       D24
         1              0.00043  -0.00325   0.00620   0.00587   0.00219
                          D25       D26       D27       D28       D29
         1              0.00465   0.00188   0.00457   0.00180   0.00212
                          D30       D31       D32
         1             -0.00066  -0.00098  -0.00367
 RFO step:  Lambda0=7.269120499D-05 Lambda=-2.59988749D-02.
 Linear search not attempted -- option 19 set.
 Maximum step size (   0.300) exceeded in Quadratic search.
    -- Step size scaled by   0.533
 Iteration  1 RMS(Cart)=  0.02251779 RMS(Int)=  0.00101727
 Iteration  2 RMS(Cart)=  0.00074111 RMS(Int)=  0.00039303
 Iteration  3 RMS(Cart)=  0.00000087 RMS(Int)=  0.00039291
 Variable       Old X    -DE/DX   Delta X   Delta X   Delta X     New X
                                 (Linear)    (Quad)   (Total)
    R1        1.92321   0.00253   0.00000   0.00024   0.00024   1.92344
    R2        2.75683   0.00566   0.00000   0.00226   0.00226   2.75908
    R3        1.92032   0.00264   0.00000   0.00031   0.00031   1.92063
    R4        2.07057   0.00068   0.00000   0.00198   0.00198   2.07255
    R5        2.91679  -0.00006   0.00000   0.00349   0.00349   2.92028
    R6        2.87587   0.00114   0.00000  -0.02212  -0.02212   2.85376
    R7        2.07078   0.00115   0.00000   0.00110   0.00110   2.07188
    R8        2.06399   0.00043   0.00000   0.00041   0.00041   2.06440
    R9        2.85516  -0.00051   0.00000  -0.00231  -0.00231   2.85285
   R10        2.34550   0.05154   0.00000   0.04952   0.04843   2.39393
   R11        2.50014  -0.01986   0.00000  -0.01856  -0.01966   2.48049
   R12        3.25127   0.00576   0.00000  -0.10440  -0.10387   3.14740
   R13        2.30019   0.02587   0.00000   0.01470   0.01470   2.31490
   R14        2.57627   0.01248   0.00000   0.01014   0.01014   2.58641
   R15        2.83990  -0.01102   0.00000  -0.16005  -0.15940   2.68050
   R16        2.89973  -0.02639   0.00000  -0.16261  -0.16193   2.73780
   R17        1.84332   0.00755   0.00000   0.00651   0.00651   1.84983
    A1        1.94341   0.00307   0.00000   0.01345   0.01321   1.95662
    A2        1.86344   0.00086   0.00000   0.01807   0.01763   1.88107
    A3        1.93909   0.00325   0.00000   0.01397   0.01373   1.95282
    A4        1.89236  -0.00037   0.00000   0.00039   0.00040   1.89276
    A5        1.92949   0.00007   0.00000   0.00360   0.00360   1.93310
    A6        1.98600   0.00188   0.00000   0.00500   0.00500   1.99100
    A7        1.86526   0.00036   0.00000  -0.00385  -0.00386   1.86140
    A8        1.86267  -0.00041   0.00000  -0.00041  -0.00044   1.86223
    A9        1.92268  -0.00160   0.00000  -0.00534  -0.00535   1.91733
   A10        1.85999  -0.00039   0.00000  -0.00237  -0.00235   1.85764
   A11        1.96511   0.00099   0.00000   0.00115   0.00113   1.96624
   A12        1.97221  -0.00264   0.00000  -0.00799  -0.00800   1.96421
   A13        1.87288  -0.00006   0.00000   0.00263   0.00262   1.87551
   A14        1.86839   0.00201   0.00000   0.00888   0.00888   1.87727
   A15        1.91894   0.00026   0.00000  -0.00127  -0.00129   1.91765
   A16        2.19378   0.00477   0.00000   0.00846   0.00878   2.20256
   A17        2.04444   0.01721   0.00000   0.07019   0.07053   2.11497
   A18        3.07132   0.00692   0.00000   0.03396   0.03395   3.10527
   A19        2.04495  -0.02198   0.00000  -0.07865  -0.07930   1.96565
   A20        2.19052  -0.00023   0.00000   0.00001   0.00001   2.19053
   A21        1.94975   0.00012   0.00000   0.00031   0.00030   1.95005
   A22        2.14185   0.00012   0.00000  -0.00024  -0.00024   2.14161
   A23        1.60927   0.01289   0.00000   0.07994   0.08251   1.69179
   A24        1.89231   0.00773   0.00000   0.01586   0.01586   1.90817
    D1        2.99801   0.00267   0.00000   0.02071   0.02082   3.01883
    D2       -1.24583   0.00292   0.00000   0.01832   0.01842  -1.22741
    D3        0.92849   0.00228   0.00000   0.01786   0.01798   0.94648
    D4        0.92332  -0.00257   0.00000  -0.02006  -0.02018   0.90314
    D5        2.96266  -0.00232   0.00000  -0.02245  -0.02257   2.94008
    D6       -1.14621  -0.00296   0.00000  -0.02291  -0.02301  -1.16922
    D7       -0.60372   0.00057   0.00000  -0.00063  -0.00063  -0.60435
    D8        1.44508   0.00080   0.00000   0.00172   0.00172   1.44680
    D9       -2.65098  -0.00017   0.00000  -0.00554  -0.00555  -2.65653
   D10        1.45231   0.00037   0.00000  -0.00047  -0.00047   1.45185
   D11       -2.78207   0.00060   0.00000   0.00189   0.00188  -2.78019
   D12       -0.59495  -0.00037   0.00000  -0.00538  -0.00539  -0.60033
   D13       -2.81373  -0.00074   0.00000  -0.00581  -0.00580  -2.81953
   D14       -0.76493  -0.00050   0.00000  -0.00346  -0.00345  -0.76838
   D15        1.42219  -0.00147   0.00000  -0.01072  -0.01072   1.41147
   D16        0.01060   0.00037   0.00000   0.00785   0.00785   0.01845
   D17       -3.12602   0.00026   0.00000   0.00790   0.00791  -3.11811
   D18       -3.12432   0.00006   0.00000  -0.00009  -0.00009  -3.12440
   D19       -2.07585   0.00000   0.00000   0.00467   0.00467  -2.07118
   D20        1.07072  -0.00012   0.00000   0.00472   0.00472   1.07545
   D21        1.07242  -0.00031   0.00000  -0.00327  -0.00327   1.06915
   D22        2.18857   0.00062   0.00000   0.01216   0.01216   2.20073
   D23       -0.94804   0.00050   0.00000   0.01221   0.01221  -0.93583
   D24       -0.94634   0.00030   0.00000   0.00422   0.00422  -0.94213
   D25        0.58087  -0.00018   0.00000  -0.00330  -0.00332   0.57755
   D26       -2.60964  -0.00021   0.00000  -0.00156  -0.00157  -2.61121
   D27       -1.46144   0.00050   0.00000  -0.00155  -0.00153  -1.46298
   D28        1.63124   0.00048   0.00000   0.00020   0.00021   1.63145
   D29        2.79271  -0.00068   0.00000  -0.00894  -0.00894   2.78378
   D30       -0.39779  -0.00071   0.00000  -0.00719  -0.00719  -0.40498
   D31       -3.09133  -0.00042   0.00000  -0.00630  -0.00630  -3.09763
   D32        0.00293  -0.00046   0.00000  -0.00460  -0.00460  -0.00167
         Item               Value     Threshold  Converged?
 Maximum Force            0.051536     0.000450     NO 
 RMS     Force            0.009064     0.000300     NO 
 Maximum Displacement     0.088682     0.001800     NO 
 RMS     Displacement     0.022502     0.001200     NO 
 Predicted change in Energy=-1.130797D-02
 GradGradGradGradGradGradGradGradGradGradGradGradGradGradGradGradGradGrad

                          Input orientation:                          
 ---------------------------------------------------------------------
 Center     Atomic     Atomic              Coordinates (Angstroms)
 Number     Number      Type              X           Y           Z
 ---------------------------------------------------------------------
    1          7             0        0.005645   -0.023078    0.009394
    2          1             0       -0.014911   -0.002165    1.026813
    3          6             0        1.368625    0.004872   -0.513323
    4          1             0        1.327214   -0.146730   -1.598751
    5          6             0        2.014888    1.389737   -0.284000
    6          6             0        2.263748   -1.077165    0.042087
    7          1             0        1.211058    2.128134   -0.387463
    8          1             0        2.432448    1.498279    0.719630
    9          6             0        3.067773    1.715052   -1.315837
   10          8             0        1.927661   -1.973362    0.871963
   11          8             0        3.047643    1.361978   -2.488669
   12          1             0       -0.499697   -0.850972   -0.294237
   13          8             0        3.524343   -1.165054   -0.313078
   14          1             0        3.296429   -2.248494    0.621366
   15          8             0        4.049088    2.519178   -0.802360
   16          1             0        4.689456    2.740377   -1.508912
 ---------------------------------------------------------------------
                    Distance matrix (angstroms):
                    1          2          3          4          5
     1  N    0.000000
     2  H    1.017842   0.000000
     3  C    1.460044   2.070324   0.000000
     4  H    2.085178   2.952252   1.096747   0.000000
     5  C    2.473699   2.788496   1.545347   2.135931   0.000000
     6  C    2.492228   2.705106   1.510143   2.105981   2.500775
     7  H    2.497645   2.835728   2.132817   2.579868   1.096393
     8  H    2.950989   2.887085   2.209560   3.049998   1.092433
     9  C    3.762175   4.235538   2.540836   2.564336   1.509664
    10  O    2.870850   2.771856   2.478900   3.130742   3.557287
    11  O    4.172823   4.857853   2.926231   2.455204   2.434732
    12  H    1.016353   1.643371   2.066663   2.352726   3.368089
    13  O    3.713399   3.959033   2.460883   2.741772   2.967534
    14  H    4.019484   4.021860   3.175155   3.636501   3.962167
    15  O    4.844733   5.120462   3.686483   3.892287   2.383758
    16  H    5.646240   6.006872   4.416119   4.432621   3.236966
                    6          7          8          9         10
     6  C    0.000000
     7  H    3.400973   0.000000
     8  H    2.668415   1.764700   0.000000
     9  C    3.207318   2.116578   2.143304   0.000000
    10  O    1.266813   4.349936   3.511453   4.437422   0.000000
    11  O    3.601199   2.893977   3.269590   1.224990   4.865459
    12  H    2.793011   3.436634   3.891579   4.511651   2.917508
    13  O    1.312618   4.025159   3.058114   3.083665   2.146410
    14  H    1.665535   4.951907   3.846353   4.417549   1.418458
    15  O    4.102952   2.894731   2.443810   1.368669   5.242777
    16  H    4.781557   3.705636   3.406360   1.928322   5.959481
                   11         12         13         14         15
    11  O    0.000000
    12  H    4.721896   0.000000
    13  O    3.368431   4.036323   0.000000
    14  H    4.771762   4.147526   1.448783   0.000000
    15  O    2.277200   5.683973   3.753441   5.032314   0.000000
    16  H    2.357002   6.426550   4.247341   5.600665   0.978886
                   16
    16  H    0.000000
 Stoichiometry    C4H7NO4
 Framework group  C1[X(C4H7NO4)]
 Deg. of freedom    42
 Full point group                 C1
 Largest Abelian subgroup         C1      NOp   1
 Largest concise Abelian subgroup C1      NOp   1
                         Standard orientation:                         
 ---------------------------------------------------------------------
 Center     Atomic     Atomic              Coordinates (Angstroms)
 Number     Number      Type              X           Y           Z
 ---------------------------------------------------------------------
    1          7             0        1.567500    1.859087    0.035516
    2          1             0        1.988924    1.827602   -0.890450
    3          6             0        0.690683    0.717372    0.279252
    4          1             0        0.371237    0.742820    1.328137
    5          6             0       -0.591848    0.819158   -0.576814
    6          6             0        1.349484   -0.623478    0.058720
    7          1             0       -0.835545    1.885958   -0.644838
    8          1             0       -0.448580    0.450123   -1.594998
    9          6             0       -1.769853    0.122594    0.060513
   10          8             0        2.552837   -0.818128   -0.286053
   11          8             0       -1.979182    0.036070    1.264380
   12          1             0        2.319588    1.911540    0.717121
   13          8             0        0.681041   -1.742594    0.212766
   14          1             0        2.023729   -2.129112   -0.170336
   15          8             0       -2.636928   -0.367955   -0.877996
   16          1             0       -3.404800   -0.775559   -0.428053
 ---------------------------------------------------------------------
 Rotational constants (GHZ):      2.5716859      1.0824959      0.9009256
 Standard basis: 6-31G (6D, 7F)
 There are    95 symmetry adapted basis functions of A   symmetry.
 Integral buffers will be    262144 words long.
 Raffenetti 2 integral format.
 Two-electron integral symmetry is turned on.
    95 basis functions,   226 primitive gaussians,    95 cartesian basis functions
    35 alpha electrons       35 beta electrons
       nuclear repulsion energy       466.4060693171 Hartrees.
 NAtoms=   16 NActive=   16 NUniq=   16 SFac= 7.50D-01 NAtFMM=   80 NAOKFM=F Big=F
 One-electron integrals computed using PRISM.
 NBasis=    95 RedAO= T  NBF=    95
 NBsUse=    95 1.00D-06 NBFU=    95
 Initial guess read from the read-write file:
 Initial guess orbital symmetries:
       Occupied  (A) (A) (A) (A) (A) (A) (A) (A) (A) (A) (A) (A)
                 (A) (A) (A) (A) (A) (A) (A) (A) (A) (A) (A) (A)
                 (A) (A) (A) (A) (A) (A) (A) (A) (A) (A) (A)
       Virtual   (A) (A) (A) (A) (A) (A) (A) (A) (A) (A) (A) (A)
                 (A) (A) (A) (A) (A) (A) (A) (A) (A) (A) (A) (A)
                 (A) (A) (A) (A) (A) (A) (A) (A) (A) (A) (A) (A)
                 (A) (A) (A) (A) (A) (A) (A) (A) (A) (A) (A) (A)
                 (A) (A) (A) (A) (A) (A) (A) (A) (A) (A) (A) (A)
 Harris functional with IExCor=  402 diagonalized for initial guess.
 ExpMin= 1.61D-01 ExpMax= 5.48D+03 ExpMxC= 8.25D+02 IAcc=1 IRadAn=         1 AccDes= 1.00D-06
 HarFok:  IExCor= 402 AccDes= 1.00D-06 IRadAn=         1 IDoV=1
 ScaDFX=  1.000000  1.000000  1.000000  1.000000
 Requested convergence on RMS density matrix=1.00D-08 within 128 cycles.
 Requested convergence on MAX density matrix=1.00D-06.
 Requested convergence on             energy=1.00D-06.
 No special actions if energy rises.
 Integral accuracy reduced to 1.0D-05 until final iterations.
 Initial convergence to 1.0D-05 achieved.  Increase integral accuracy.
 SCF Done:  E(RB+HF-LYP) =  -512.062283601     A.U. after   14 cycles
             Convg  =    0.5381D-08             -V/T =  2.0054
             S**2   =   0.0000
 ***** Axes restored to original set *****
 -------------------------------------------------------------------
 Center     Atomic                   Forces (Hartrees/Bohr)
 Number     Number              X              Y              Z
 -------------------------------------------------------------------
    1          7           0.001322330   -0.005795695    0.003506604
    2          1          -0.000885922    0.003426070    0.001162968
    3          6          -0.003190283    0.001147174    0.000800157
    4          1           0.000002979   -0.000137537   -0.000337737
    5          6           0.000455851    0.001466356   -0.000496885
    6          6           0.015997279    0.031500356   -0.031150205
    7          1          -0.000870709   -0.000074372    0.000157991
    8          1           0.000480759   -0.000383362    0.000089046
    9          6          -0.004540967   -0.001034780    0.011922528
   10          8           0.001851506   -0.028326647    0.021259474
   11          8          -0.000251906   -0.003918835   -0.012439291
   12          1          -0.002422505    0.000935452   -0.002849159
   13          8          -0.005954433   -0.016274535    0.015428143
   14          1          -0.007016863    0.013507247   -0.007905213
   15          8           0.001138657    0.002214430    0.002030251
   16          1           0.003884226    0.001748677   -0.001178673
 -------------------------------------------------------------------
 Cartesian Forces:  Max     0.031500356 RMS     0.009963579

 GradGradGradGradGradGradGradGradGradGradGradGradGradGradGradGradGradGrad
 Berny optimization.
 Internal  Forces:  Max     0.031206970 RMS     0.005053357
 Search for a saddle point.
 Step number   3 out of a maximum of  83
 All quantities printed in internal units (Hartrees-Bohrs-Radians)
 Swaping is turned off.
 Update second derivatives using D2CorX and points  1  2  3
     Eigenvalues ---   -0.09149   0.00006   0.00071   0.00134   0.00274
     Eigenvalues ---    0.00646   0.02284   0.03256   0.03751   0.03833
     Eigenvalues ---    0.04215   0.04508   0.04973   0.05059   0.05420
     Eigenvalues ---    0.08232   0.11705   0.12245   0.13568   0.15690
     Eigenvalues ---    0.16161   0.16625   0.17170   0.18242   0.19798
     Eigenvalues ---    0.20544   0.22339   0.25735   0.27146   0.30308
     Eigenvalues ---    0.34092   0.34450   0.34729   0.35035   0.36086
     Eigenvalues ---    0.40179   0.44966   0.45359   0.45949   0.52218
     Eigenvalues ---    0.81978   0.951161000.000001000.000001000.00000
     Eigenvalues --- 1000.000001000.000001000.000001000.000001000.00000
     Eigenvalues --- 1000.000001000.000001000.000001000.000001000.00000
     Eigenvalues --- 1000.000001000.000001000.000001000.000001000.00000
     Eigenvalues --- 1000.000001000.000001000.000001000.000001000.00000
     Eigenvalues --- 1000.000001000.000001000.000001000.000001000.00000
     Eigenvalues --- 1000.000001000.000001000.00000
 Eigenvectors required to have negative eigenvalues:
                          R1        R2        R3        R4        R5
         1              0.00072  -0.00573   0.00030   0.00125   0.00247
                          R6        R7        R8        R9        R10
         1             -0.00206  -0.00004   0.00047   0.00027  -0.07551
                          R11       R12       R13       R14       R15
         1              0.11259   0.03170  -0.00065  -0.00093   0.67015
                          R16       R17       A1        A2        A3
         1             -0.65880  -0.00038  -0.00706  -0.00599  -0.00534
                          A4        A5        A6        A7        A8
         1              0.00284   0.00184  -0.01945  -0.00327   0.00703
                          A9        A10       A11       A12       A13
         1              0.01198  -0.00090   0.00067   0.00388  -0.00125
                          A14       A15       A16       A17       A18
         1             -0.00174  -0.00102   0.02163  -0.01006  -0.30804
                          A19       A20       A21       A22       A23
         1             -0.01157  -0.00033   0.00101  -0.00056   0.00902
                          A24       D1        D2        D3        D4
         1             -0.00161  -0.00904  -0.01028  -0.00771   0.00760
                          D5        D6        D7        D8        D9
         1              0.00636   0.00893  -0.00641  -0.00812  -0.00587
                          D10       D11       D12       D13       D14
         1             -0.00394  -0.00565  -0.00340   0.00856   0.00685
                          D15       D16       D17       D18       D19
         1              0.00910  -0.00463  -0.00431   0.00016  -0.00131
                          D20       D21       D22       D23       D24
         1             -0.00099   0.00348  -0.00728  -0.00696  -0.00249
                          D25       D26       D27       D28       D29
         1             -0.00428  -0.00171  -0.00428  -0.00171  -0.00127
                          D30       D31       D32
         1              0.00130   0.00158   0.00408
 RFO step:  Lambda0=7.779654289D-09 Lambda=-9.22307598D-03.
 Linear search not attempted -- option 19 set.
 Maximum step size (   0.300) exceeded in Quadratic search.
    -- Step size scaled by   0.792
 Iteration  1 RMS(Cart)=  0.02431132 RMS(Int)=  0.00246250
 Iteration  2 RMS(Cart)=  0.00083393 RMS(Int)=  0.00051800
 Iteration  3 RMS(Cart)=  0.00000134 RMS(Int)=  0.00050847
 Iteration  4 RMS(Cart)=  0.00000008 RMS(Int)=  0.00050847
 Variable       Old X    -DE/DX   Delta X   Delta X   Delta X     New X
                                 (Linear)    (Quad)   (Total)
    R1        1.92344   0.00125   0.00000  -0.00230  -0.00230   1.92114
    R2        2.75908   0.00253   0.00000  -0.00465  -0.00465   2.75444
    R3        1.92063   0.00129   0.00000  -0.00222  -0.00222   1.91841
    R4        2.07255   0.00035   0.00000   0.00217   0.00217   2.07472
    R5        2.92028   0.00015   0.00000   0.00414   0.00414   2.92442
    R6        2.85376   0.00173   0.00000  -0.00968  -0.00968   2.84408
    R7        2.07188   0.00057   0.00000   0.00062   0.00062   2.07250
    R8        2.06440   0.00023   0.00000   0.00043   0.00043   2.06483
    R9        2.85285  -0.00028   0.00000  -0.00181  -0.00181   2.85104
   R10        2.39393   0.03121   0.00000   0.04744   0.04607   2.44000
   R11        2.48049  -0.00874   0.00000  -0.00743  -0.00879   2.47170
   R12        3.14740   0.00127   0.00000  -0.11160  -0.11103   3.03638
   R13        2.31490   0.01304   0.00000   0.01206   0.01206   2.32695
   R14        2.58641   0.00625   0.00000   0.00771   0.00771   2.59412
   R15        2.68050  -0.00578   0.00000  -0.12668  -0.12570   2.55480
   R16        2.73780  -0.01296   0.00000  -0.15741  -0.15646   2.58134
   R17        1.84983   0.00379   0.00000   0.00505   0.00505   1.85487
    A1        1.95662   0.00189   0.00000   0.02048   0.01980   1.97643
    A2        1.88107   0.00076   0.00000   0.02998   0.02886   1.90993
    A3        1.95282   0.00195   0.00000   0.02049   0.01981   1.97262
    A4        1.89276  -0.00013   0.00000   0.00172   0.00173   1.89449
    A5        1.93310   0.00010   0.00000   0.00522   0.00523   1.93832
    A6        1.99100   0.00082   0.00000   0.00243   0.00242   1.99342
    A7        1.86140   0.00003   0.00000  -0.00582  -0.00583   1.85556
    A8        1.86223  -0.00018   0.00000  -0.00176  -0.00178   1.86045
    A9        1.91733  -0.00069   0.00000  -0.00259  -0.00261   1.91472
   A10        1.85764  -0.00024   0.00000  -0.00179  -0.00176   1.85588
   A11        1.96624   0.00049   0.00000  -0.00036  -0.00039   1.96586
   A12        1.96421  -0.00143   0.00000  -0.00731  -0.00732   1.95690
   A13        1.87551   0.00003   0.00000   0.00369   0.00369   1.87920
   A14        1.87727   0.00116   0.00000   0.00953   0.00953   1.88680
   A15        1.91765   0.00008   0.00000  -0.00260  -0.00263   1.91502
   A16        2.20256   0.00170   0.00000  -0.00058  -0.00002   2.20254
   A17        2.11497   0.00907   0.00000   0.06212   0.06257   2.17754
   A18        3.10527   0.00430   0.00000   0.02751   0.02762   3.13289
   A19        1.96565  -0.01077   0.00000  -0.06153  -0.06254   1.90310
   A20        2.19053  -0.00014   0.00000   0.00004   0.00004   2.19056
   A21        1.95005   0.00004   0.00000  -0.00005  -0.00005   1.95000
   A22        2.14161   0.00010   0.00000   0.00012   0.00012   2.14173
   A23        1.69179   0.00999   0.00000   0.09055   0.09350   1.78529
   A24        1.90817   0.00415   0.00000   0.01476   0.01476   1.92293
    D1        3.01883   0.00190   0.00000   0.03002   0.03029   3.04912
    D2       -1.22741   0.00192   0.00000   0.02694   0.02721  -1.20020
    D3        0.94648   0.00170   0.00000   0.02953   0.02981   0.97629
    D4        0.90314  -0.00185   0.00000  -0.03820  -0.03848   0.86465
    D5        2.94008  -0.00183   0.00000  -0.04128  -0.04156   2.89852
    D6       -1.16922  -0.00204   0.00000  -0.03869  -0.03896  -1.20818
    D7       -0.60435   0.00021   0.00000  -0.00769  -0.00769  -0.61203
    D8        1.44680   0.00037   0.00000  -0.00451  -0.00452   1.44229
    D9       -2.65653  -0.00026   0.00000  -0.01414  -0.01413  -2.67066
   D10        1.45185   0.00013   0.00000  -0.00624  -0.00624   1.44560
   D11       -2.78019   0.00029   0.00000  -0.00306  -0.00307  -2.78326
   D12       -0.60033  -0.00034   0.00000  -0.01268  -0.01269  -0.61302
   D13       -2.81953  -0.00041   0.00000  -0.01275  -0.01274  -2.83228
   D14       -0.76838  -0.00025   0.00000  -0.00958  -0.00957  -0.77796
   D15        1.41147  -0.00089   0.00000  -0.01920  -0.01919   1.39228
   D16        0.01845   0.00034   0.00000   0.02963   0.02963   0.04809
   D17       -3.11811   0.00029   0.00000   0.02699   0.02699  -3.09112
   D18       -3.12440   0.00002   0.00000  -0.00144  -0.00144  -3.12584
   D19       -2.07118   0.00013   0.00000   0.02724   0.02724  -2.04394
   D20        1.07545   0.00008   0.00000   0.02459   0.02459   1.10004
   D21        1.06915  -0.00020   0.00000  -0.00384  -0.00384   1.06531
   D22        2.20073   0.00054   0.00000   0.03634   0.03633   2.23706
   D23       -0.93583   0.00049   0.00000   0.03369   0.03369  -0.90214
   D24       -0.94213   0.00021   0.00000   0.00526   0.00526  -0.93687
   D25        0.57755  -0.00019   0.00000  -0.01288  -0.01290   0.56465
   D26       -2.61121  -0.00015   0.00000  -0.01023  -0.01025  -2.62146
   D27       -1.46298   0.00019   0.00000  -0.01253  -0.01252  -1.47550
   D28        1.63145   0.00023   0.00000  -0.00988  -0.00987   1.62158
   D29        2.78378  -0.00055   0.00000  -0.02090  -0.02090   2.76288
   D30       -0.40498  -0.00051   0.00000  -0.01826  -0.01825  -0.42323
   D31       -3.09763  -0.00037   0.00000  -0.01138  -0.01138  -3.10901
   D32       -0.00167  -0.00033   0.00000  -0.00882  -0.00882  -0.01049
         Item               Value     Threshold  Converged?
 Maximum Force            0.031207     0.000450     NO 
 RMS     Force            0.005053     0.000300     NO 
 Maximum Displacement     0.088251     0.001800     NO 
 RMS     Displacement     0.024283     0.001200     NO 
 Predicted change in Energy=-4.830522D-03
 GradGradGradGradGradGradGradGradGradGradGradGradGradGradGradGradGradGrad

                          Input orientation:                          
 ---------------------------------------------------------------------
 Center     Atomic     Atomic              Coordinates (Angstroms)
 Number     Number      Type              X           Y           Z
 ---------------------------------------------------------------------
    1          7             0        0.013593   -0.037535    0.022623
    2          1             0       -0.020710    0.003708    1.037831
    3          6             0        1.369976    0.005727   -0.509268
    4          1             0        1.323455   -0.138797   -1.596615
    5          6             0        2.012117    1.395361   -0.282469
    6          6             0        2.278416   -1.066958    0.028480
    7          1             0        1.203616    2.129226   -0.385274
    8          1             0        2.434234    1.505106    0.719369
    9          6             0        3.065226    1.710101   -1.315953
[...]
 ! D5    D(12,1,3,5)           159.985          -DE/DX =    0.0                 !
 ! D6    D(12,1,3,6)           -74.475          -DE/DX =    0.0                 !
 ! D7    D(1,3,5,7)            -29.6722         -DE/DX =    0.0                 !
 ! D8    D(1,3,5,8)             88.7393         -DE/DX =    0.0                 !
 ! D9    D(1,3,5,9)           -147.1011         -DE/DX =    0.0                 !
 ! D10   D(4,3,5,7)             88.2377         -DE/DX =    0.0                 !
 ! D11   D(4,3,5,8)           -153.3508         -DE/DX =    0.0                 !
 ! D12   D(4,3,5,9)            -29.1912         -DE/DX =    0.0                 !
 ! D13   D(6,3,5,7)           -160.309          -DE/DX =    0.0                 !
 ! D14   D(6,3,5,8)            -41.8975         -DE/DX =    0.0                 !
 ! D15   D(6,3,5,9)             82.2621         -DE/DX =    0.0                 !
 ! D16   D(1,3,6,10)             3.5894         -DE/DX =    0.0                 !
 ! D17   D(1,3,6,13)          -176.759          -DE/DX =    0.0                 !
 ! D18   D(1,3,6,14)           -85.5503         -DE/DX =    0.0                 !
 ! D19   D(4,3,6,10)          -115.6899         -DE/DX =    0.0                 !
 ! D20   D(4,3,6,13)            63.9617         -DE/DX =    0.0                 !
 ! D21   D(4,3,6,14)           155.1704         -DE/DX =    0.0                 !
 ! D22   D(5,3,6,10)           130.439          -DE/DX =    0.0                 !
 ! D23   D(5,3,6,13)           -49.9094         -DE/DX =    0.0                 !
 ! D24   D(5,3,6,14)            41.2993         -DE/DX =    0.0                 !
 ! D25   D(3,5,9,11)            36.9821         -DE/DX =    0.0                 !
 ! D26   D(3,5,9,15)          -146.7905         -DE/DX =    0.0                 !
 ! D27   D(7,5,9,11)           -79.4774         -DE/DX =    0.0                 !
 ! D28   D(7,5,9,15)            96.7499         -DE/DX =    0.0                 !
 ! D29   D(8,5,9,11)           162.7705         -DE/DX =    0.0                 !
 ! D30   D(8,5,9,15)           -21.0021         -DE/DX =    0.0                 !
 ! D31   D(5,9,15,16)         -178.92           -DE/DX =    0.0                 !
 ! D32   D(11,9,15,16)          -2.5594         -DE/DX =    0.0                 !
 --------------------------------------------------------------------------------
 GradGradGradGradGradGradGradGradGradGradGradGradGradGradGradGradGradGrad


 Test job not archived.
 1|1|UNPC-UNK|Freq|RB3LYP|6-31G|C4H7N1O4|PCUSER|01-Apr-2016|0||#N Geom=
 AllCheck Guess=Read SCRF=Check Test GenChk RB3LYP/6-31G Freq||Asp-S-op
 t-freq-ts1-6-31g||0,1|N,-0.0258990088,0.0105784821,0.0016847558|H,-0.1
 638533894,0.1700885018,0.9911908336|C,1.3445948806,0.0038075941,-0.475
 2130719|H,1.3267257206,-0.1608464947,-1.5580932492|C,2.02369022,1.3697
 758781,-0.2273119813|C,2.2867607682,-1.111980958,0.0521570493|H,1.2252
 675932,2.1206385471,-0.2670117932|H,2.5021350787,1.429756564,0.7517019
 417|C,3.0252472743,1.7032782844,-1.3041420981|O,2.3151929332,-2.224362
 098,0.8309145851|O,2.9032780924,1.4435994744,-2.5033161771|H,-0.639802
 8472,-0.6950133808,-0.3805688817|O,3.4452974954,-0.8923735449,-0.43423
 57041|H,3.3405065688,-2.3598481198,0.6420371131|O,4.0867848851,2.42199
 59769,-0.8066259778|H,4.7154858349,2.6414920631,-1.5285454443||Version
 =IA32W-G03RevE.01|State=1-A|HF=-512.0830672|RMSD=1.647e-009|RMSF=1.373
 e-002|ZeroPoint=0.1214542|Thermal=0.1300453|Dipole=-0.4230095,0.014547
 1,0.736152|DipoleDeriv=-0.8323647,0.216176,0.0184255,0.2466761,-0.6605
 366,0.2220386,0.0206665,0.1800891,-0.2691547,0.182,-0.0678726,-0.03183
 77,-0.1077249,0.3315583,-0.0040523,0.0423809,-0.0600585,0.050016,0.911
 9547,-0.1583311,-0.0789562,-0.0825025,0.4164036,-0.1042095,-0.1206087,
 -0.0333975,0.1383962,0.0359244,0.0573109,0.0036711,0.0759535,0.0825505
 ,-0.0338766,-0.0176744,-0.0648883,0.0429023,-0.1973673,-0.0571509,0.16
 5952,-0.0828069,0.0495564,-0.003246,0.1351556,0.0495106,-0.0255713,0.5
 591746,-0.0081523,-0.1200862,0.1029859,0.8542194,-0.4587947,-0.1995431
 ,-0.4942323,0.5981613,0.0375411,0.0620854,0.0021213,0.0607626,0.002741
 8,0.0234298,0.0021278,0.0237266,0.0694827,0.0543985,-0.0272162,-0.0522
 663,-0.0291594,0.0620401,0.0285437,-0.0315908,-0.0090012,-0.0421965,1.
 2425138,0.6150165,-0.0288087,0.5898307,0.8349192,0.0392698,0.101342,0.
 1364178,1.2082334,-0.3220515,0.0992493,-0.0639868,-0.1153203,-0.882358
 ,0.3529376,0.0715086,0.3504766,-0.5998027,-0.5838002,-0.1604557,0.1009
 85,-0.1849452,-0.5371302,0.0278448,-0.1296948,-0.1106609,-0.9697969,0.
 1969407,-0.0760497,0.0557995,-0.1862263,0.1575134,-0.1004117,0.1012326
 ,-0.0661883,0.1953421,-0.8140713,-0.1062294,0.2172935,0.1520609,-0.744
 9705,0.1561156,0.0359455,0.2212865,-0.5147468,0.1791956,0.0777298,-0.0
 051615,-0.0529316,0.387036,-0.0058409,0.0855315,-0.0446234,0.347454,-0
 .9665925,-0.4303298,-0.246667,-0.3739156,-0.7573365,-0.1262121,-0.2164
 351,-0.1019751,-0.3741306,0.3166042,-0.0357804,0.0635224,-0.0127368,0.
 403793,-0.0135362,0.119656,0.0235183,0.1454114|Polar=62.2886606,5.7296
 875,56.3871218,-4.4425912,-6.1271626,52.4850849|PG=C01 [X(C4H7N1O4)]|N
 Imag=1||0.54589378,0.21650214,0.31804024,-0.04640143,0.22664961,0.6522
 8329,-0.06524715,-0.01482063,0.04363687,0.07002667,-0.01790171,-0.0303
 3624,-0.05473721,0.00966524,0.03513632,0.05806512,-0.09375947,-0.42561
 302,-0.05870509,0.08292175,0.44326736,-0.20246329,-0.03162838,0.053010
 12,-0.00594063,0.00572367,-0.00665296,0.49422701,-0.00298707,-0.075397
 17,-0.02354056,0.00665317,-0.00131606,0.00235754,0.03387837,0.40109655
 ,0.04110761,-0.01368285,-0.12104094,0.03938336,0.00117313,-0.00882870,
 -0.03726479,0.05828657,0.58232079,-0.00945758,0.00861893,0.03995277,-0
 .00540857,-0.00155859,0.00232889,-0.04492123,-0.00108977,-0.01291836,0
 .06683003,-0.00025754,0.00064379,-0.00161913,-0.00011828,0.00129095,-0
 .00011637,-0.00081501,-0.05010359,-0.03834136,-0.00108934,0.06487392,0
 .00332721,-0.00321191,-0.00940400,0.00088361,0.00073350,0.00151193,-0.
 00691213,-0.04237517,-0.30668397,0.00598833,0.04300273,0.33290583,-0.0
 2915027,-0.03061988,-0.00746350,0.00144595,0.00076322,0.00000367,-0.08
 139089,-0.03117958,-0.00873237,-0.00206569,-0.00616127,-0.00258423,0.5
 5005957,-0.00788960,-0.00384506,-0.00100830,0.00089142,0.00119408,0.00
 014724,-0.03584021,-0.13895389,-0.01932963,-0.00558760,-0.00815262,-0.
 00384763,-0.03587191,0.48001412,0.01079840,0.01019786,0.00710639,0.000
 11210,0.00005774,0.00061836,-0.00861105,-0.02083418,-0.08672079,-0.014
 82231,-0.02917641,-0.00559870,0.05674198,0.00489734,0.57652995,-0.0366
 2765,0.01774113,-0.00177569,0.00025721,0.00116340,-0.00063587,-0.08637
 587,0.03249540,-0.02054696,-0.00176176,0.00814227,-0.00520883,0.004812
 52,0.00049455,0.00454801,0.68005714,0.00447470,0.00639640,-0.00234758,
 -0.00049450,0.00071769,-0.00012951,0.01883858,-0.09993865,0.00696877,0
 .00199633,-0.00207763,0.00500136,0.01322023,-0.03477741,0.01598972,-0.
 07247308,0.48536387,0.00877353,-0.00773166,0.00876018,0.00201041,-0.00
 329771,0.00141243,-0.01263071,0.00464209,-0.08664698,-0.01977079,0.029
 54507,-0.01570199,0.00253191,-0.00125178,0.00257430,-0.08516181,-0.179
 87832,0.34725571,-0.00059641,-0.00086107,-0.00022236,0.00023034,-0.000
 29236,0.00057905,0.00752277,-0.01295502,-0.00037329,-0.00001096,0.0004
 3802,-0.00002757,-0.18588714,0.13547057,-0.00834794,-0.00250881,-0.001
 55377,0.00020833,0.20696282,0.00171001,0.00440881,0.00013780,-0.000162
 37,-0.00110706,0.00079129,0.02086016,-0.02771535,0.00187042,-0.0001726
 1,0.00027125,-0.00012268,0.12845743,-0.16450423,0.00785719,-0.00213294
 ,-0.00291125,-0.00238492,-0.14211408,0.18609312,0.00065151,0.00098291,
 0.00001946,0.00005487,0.00065208,-0.00021575,0.00279202,-0.00455005,0.
 00085146,0.00022902,-0.00002722,-0.00006065,-0.00705795,0.00605749,-0.
 05096909,-0.00022429,-0.00045582,0.00016371,0.00548718,-0.00873496,0.0
 5257988,-0.00009065,-0.00096975,0.00057425,-0.00054962,-0.00034061,0.0
 0016294,-0.00468675,0.00034048,-0.01203873,-0.00066297,-0.00120415,0.0
 0086187,-0.10316128,-0.00690420,-0.11325574,0.00001244,0.00104489,0.00
 053054,-0.00899374,-0.00165384,-0.02294325,0.11107349,0.00064742,0.000
 25903,0.00005852,-0.00026189,0.00027065,0.00031464,-0.01227623,-0.0054
 9700,-0.02843251,-0.00251984,-0.00455670,-0.00061945,-0.00582576,-0.05
 048116,-0.00881920,-0.00266801,0.00068423,-0.00139598,0.00960579,0.001
 40120,0.02151034,0.00899930,0.05692307,-0.00068954,-0.00036293,0.00027
 690,-0.00033761,-0.00000703,-0.00011919,-0.00026413,0.00100069,-0.0014
 8543,0.00001221,-0.00000782,0.00041727,-0.10504566,-0.00900019,-0.2687
 1997,-0.00132700,-0.00007520,0.00139314,0.00058485,-0.00059712,0.00012
 305,0.11698459,0.01031571,0.29225636,0.00001475,-0.00056800,-0.0016578
 8,-0.00011067,-0.00020241,0.00020584,-0.01759719,-0.01011826,0.0066651
 4,-0.00193972,-0.00300232,0.00165527,-0.13080659,-0.01500267,0.0586706
 6,0.00687790,-0.00225562,0.00081279,-0.01938703,-0.00570826,0.02177088
 ,0.01127623,0.00629621,-0.01580206,0.49732313,-0.00104432,-0.00247657,
 -0.00214991,0.00008912,-0.00007643,0.00013951,-0.02487075,-0.01083945,
 0.02212753,-0.00255024,-0.00092696,0.00076517,-0.01417520,-0.09121846,
 0.02293478,-0.00678634,-0.00495624,0.00350218,0.01702814,0.00692332,-0
 .01966934,0.00038187,0.00015445,-0.00278382,0.15879860,0.31791000,-0.0
 0438309,-0.00388743,-0.00353892,0.00068761,0.00101880,-0.00061472,0.00
 271670,0.00710416,0.00818336,-0.00428533,-0.00512918,-0.00040818,0.047
 63065,0.01787938,-0.13813937,-0.00252002,-0.00076200,-0.00219015,0.001
 20716,-0.00012811,-0.00116967,0.02458160,0.00536213,-0.02548613,-0.026
 78676,0.10583621,0.91184208,-0.00008272,-0.00071836,0.00077832,0.00025
 358,-0.00097181,0.00025439,0.01597969,0.00199774,-0.00518615,-0.001617
 33,0.00184243,-0.00129694,-0.00183519,0.00104159,-0.00240833,-0.113588
 55,0.03085746,-0.00537387,0.00054637,0.00073105,0.00008258,0.00013181,
 0.00013634,0.00026568,-0.00227477,0.00238552,0.00111493,0.33014615,0.0
 0279102,0.00078861,-0.00242149,0.00034517,0.00008616,-0.00024713,-0.01
 274264,0.00394769,0.00560647,-0.00011928,-0.00149722,-0.00104124,0.001
 50214,0.00003837,0.00071928,0.00164072,-0.21336386,0.10921110,0.000041
 28,-0.00069299,-0.00005732,-0.00019522,0.00010105,0.00008891,0.0006320
 0,0.00353111,0.00024530,0.02240131,0.29076622,-0.00206933,-0.00102575,
 0.00063958,-0.00053536,0.00054020,-0.00014001,0.00591601,0.00088643,0.
 00249040,0.00001041,-0.00020363,0.00043112,-0.00108256,-0.00161015,-0.
 00117926,0.01499535,0.10144335,-0.13182554,-0.00014862,0.00042959,-0.0
 0000059,0.00026830,-0.00015769,-0.00040507,0.00044848,-0.00276201,0.00
 094161,-0.09162004,-0.17078644,0.20479589,-0.00019411,-0.00033215,0.00
 102317,-0.00012714,-0.00005717,-0.00000469,0.00001640,-0.00020989,0.00
 124336,0.00012313,0.00215994,0.00085085,0.01252089,-0.00063625,0.02563
 799,-0.00268857,0.00126495,0.00103897,0.00129913,0.00015413,-0.0014172
 6,-0.00389429,-0.00200162,0.00465920,-0.10266226,-0.02584673,-0.039286
 08,0.00108825,-0.00011368,-0.00034904,0.08925800,-0.00048579,0.0009541
 6,0.00123973,-0.00031225,-0.00043205,0.00007634,0.00060260,-0.00056650
 ,-0.00048426,0.00189814,0.00115596,0.00085107,-0.00398531,0.01441696,0
 .00089349,0.00130154,0.00188032,-0.00063046,-0.00233111,-0.00013589,0.
 00310312,-0.00019654,0.00120633,0.00146357,-0.02405336,-0.10234182,-0.
 11645613,-0.00071669,-0.00175488,0.00093234,0.04584207,0.08455495,0.00
 122905,0.00060208,0.00137130,-0.00052990,-0.00057264,0.00040505,-0.004
 02530,-0.00418743,-0.00235340,0.00123683,0.00179394,0.00009225,0.00303
 264,-0.00751151,-0.04020564,0.00149312,0.00036572,0.00009618,-0.000496
 21,0.00036689,-0.00139489,0.00427857,0.00131536,-0.00211534,-0.0303531
 8,-0.10957807,-0.63934146,-0.00037443,0.00010783,-0.00019235,0.0663935
 2,0.15129446,0.72491714,-0.19089627,-0.16885935,-0.07789703,0.00518677
 ,0.00468472,0.00490943,-0.02017885,-0.02661140,-0.01277536,0.00120318,
 0.00002272,0.00014612,-0.00272846,0.00216216,0.00249471,-0.00182512,-0
 .00116733,0.00004172,0.00022038,0.00013587,0.00023653,-0.00016496,-0.0
 0002589,-0.00006273,0.00004662,-0.00084579,-0.00099424,0.00039585,0.00
 041048,-0.00026274,-0.00000593,0.00021743,0.00011376,0.20878479,-0.198
 92595,-0.21766599,-0.14074892,-0.00163048,-0.00522025,0.00747455,0.013
 53149,-0.00179975,0.00108486,-0.00030287,0.00020926,0.00049658,-0.0027
 1087,-0.00062443,0.00157654,0.00243003,0.00098865,-0.00025410,-0.00052
 914,0.00068841,-0.00020943,-0.00007502,-0.00012415,-0.00015288,-0.0003
 1915,-0.00014869,-0.00157289,-0.00041182,-0.00026700,0.00002766,0.0001
 3174,0.00003644,0.00066527,0.18904118,0.22494236,-0.07188789,-0.116148
 93,-0.11351112,-0.02550525,-0.02918295,-0.01184523,0.00817516,0.012385
 03,0.00683502,0.00013884,0.00065648,0.00045415,0.00433161,0.00049526,-
 0.00081825,-0.00126090,-0.00044870,0.00005878,0.00008565,-0.00027723,-
 0.00021802,0.00035496,0.00030507,0.00013746,0.00019330,0.00069869,0.00
 129782,0.00043626,-0.00001458,-0.00003301,-0.00009561,-0.00009892,-0.0
 0051976,0.08376991,0.13124276,0.11876554,-0.00743907,0.00889462,-0.003
 42071,0.00013831,-0.00105369,-0.00031601,-0.05232418,0.00855648,0.0122
 8972,-0.00181613,-0.00095449,0.00306715,-0.00300567,-0.00171368,-0.001
 06158,-0.43476913,-0.04174697,0.13375856,0.00091152,0.00023325,0.00041
 986,-0.00000524,0.00097617,0.00117152,-0.00665675,0.00239464,0.0000395
 1,-0.00123231,-0.04757646,0.04551333,0.00245376,-0.00012453,-0.0002171
 8,0.00051151,0.00007198,0.00065140,0.51567371,0.00515736,-0.00135689,0
 .00115812,0.00010330,-0.00031909,0.00017705,0.02909085,0.00225785,-0.0
 0083147,0.00160705,-0.00114014,0.00002148,0.00688938,-0.00505732,-0.00
 017740,-0.05100635,-0.10672810,0.03535420,0.00052107,-0.00078832,-0.00
 003387,0.00024170,0.00071027,0.00100470,0.00227921,0.00261039,-0.00156
 757,-0.07672739,-0.03030498,0.07164374,0.00004180,-0.00204489,0.001515
 22,0.00088052,-0.00070333,0.00007233,0.08292963,0.14340051,-0.00050942
 ,0.00085068,0.00165606,-0.00100877,0.00087543,0.00004423,-0.00323833,0
 .00663410,0.01192395,0.00056602,-0.00122882,0.00275934,-0.00101213,0.0
 0152883,-0.00009014,0.14011310,0.03295131,-0.13920032,-0.00007649,0.00
 053883,0.00071209,-0.00008531,0.00033695,0.00058464,-0.00143447,-0.003
 11064,-0.00535937,0.06495783,0.06210349,-0.02343336,-0.00091322,0.0038
 3180,0.00157536,0.00001861,0.00001961,-0.00020706,-0.20023452,-0.09931
 951,0.15709807,-0.00128753,-0.00020683,0.00025242,-0.00016181,0.000181
 75,-0.00008417,-0.00027893,-0.00310299,0.00471413,0.00017313,-0.000192
 75,-0.00001658,0.00017977,-0.00017747,-0.00031141,-0.00811093,0.046916
 55,-0.02605530,0.00001162,-0.00001479,-0.00006792,0.00000282,-0.000015
 47,-0.00001347,-0.00006959,0.00015493,0.00011181,-0.22909207,0.0315397
 2,0.02879437,-0.00002966,-0.00001412,-0.00008221,-0.00021515,0.0002339
 3,-0.00002452,-0.01568582,-0.00198185,0.00192892,0.25459159,-0.0007534
 9,0.00084319,-0.00064435,0.00002466,0.00006413,-0.00010575,-0.00327470
 ,0.00302573,0.00357011,0.00045246,-0.00080628,0.00063965,-0.00008094,-
 0.00003831,0.00014365,0.07005273,-0.03218418,0.01494805,-0.00008352,0.
 00008454,-0.00011212,-0.00003332,-0.00030723,-0.00019830,-0.00003734,-
 0.00116603,0.00055824,0.01795641,-0.05070310,0.00006420,-0.00008897,0.
 00036129,-0.00044298,0.00006329,-0.00006017,0.00011489,-0.01093761,0.0
 0036991,-0.00624395,-0.07327588,0.08033244,0.00075124,-0.00074675,-0.0
 0000432,0.00003449,0.00008770,0.00000514,0.00438469,0.00319642,0.00299
 966,0.00019120,-0.00034645,-0.00027883,-0.00033032,0.00078527,-0.00055
 785,-0.04283647,0.02114603,0.01376025,0.00014463,0.00016177,0.00001055
 ,-0.00003296,-0.00010395,0.00003155,0.00005512,0.00114277,0.00038367,0
 .03864185,-0.00326622,-0.05211566,0.00003012,-0.00051906,-0.00015777,0
 .00000843,-0.00007977,0.00002920,0.00824837,-0.00903066,-0.00923291,-0
 .00913413,-0.01224601,0.04531424,-0.00193298,-0.00197778,-0.00001911,-
 0.00001743,0.00019952,-0.00010566,-0.00081577,0.00371263,0.00332189,0.
 00147730,0.00137600,-0.00081474,-0.02913712,-0.02443258,-0.00548957,-0
 .00354107,0.00135958,-0.00078206,-0.00030427,-0.00072481,0.00010522,-0
 .00087778,-0.00126540,0.00013474,-0.19954503,-0.09037381,-0.03801599,0
 .00111360,-0.00078534,0.00027410,-0.00314180,-0.02396517,-0.04054106,-
 0.00027789,-0.00041138,0.00045175,0.00324457,-0.00039710,0.00122186,-0
 .00007064,0.00006848,-0.00022605,0.43184692,-0.00117042,-0.00072068,0.
 00008256,0.00003470,-0.00009393,-0.00000793,-0.00019353,0.00105741,0.0
 0039025,0.00054608,0.00099103,-0.00031937,-0.01597303,-0.00112535,-0.0
 0343330,0.00021021,0.00123765,-0.00089304,-0.00151633,-0.00150952,0.00
 094939,0.00031501,-0.00074437,-0.00020652,-0.08202820,-0.11067343,-0.0
 3257739,-0.00008908,-0.00121538,0.00111383,-0.02682552,0.00446970,-0.0
 3542473,-0.00005244,-0.00021333,0.00019035,-0.00089596,-0.00131582,0.0
 0052781,0.00000559,0.00034584,-0.00030122,0.19783217,0.15364783,0.0011
 6856,0.00110462,0.00095002,-0.00017161,-0.00020060,0.00007909,0.002510
 06,-0.00044250,-0.00225927,0.00110844,0.00110304,-0.00048444,0.0203704
 2,0.01294159,0.00580064,0.00016222,0.00037801,0.00008507,0.00117129,0.
 00005786,-0.00031799,0.00014783,0.00034875,0.00231640,-0.00040207,-0.0
 1087473,-0.11852431,-0.00017614,-0.00024052,-0.00001408,-0.05932429,-0
 .04628573,-0.03920802,0.00026765,0.00040166,-0.00037948,0.00037921,-0.
 00004776,0.00123475,-0.00003744,-0.00005330,-0.00019806,-0.13461089,-0
 .00408542,0.41892823,-0.00044285,-0.00019462,-0.00037022,0.00002419,-0
 .00000315,-0.00000489,-0.00077229,0.00061972,0.00111080,-0.00014482,-0
 .00018625,0.00008060,0.00014960,-0.00600410,-0.00469592,-0.00021974,-0
 .00028201,0.00006780,-0.00001660,0.00040181,-0.00011899,0.00059051,0.0
 0019887,-0.00027059,-0.03448905,-0.01473965,0.03818153,0.00006765,0.00
 022876,-0.00015265,0.00598421,0.00632309,-0.00115802,-0.00005647,-0.00
 012366,0.00018532,0.00000091,0.00037082,-0.00029370,0.00004320,-0.0000
 5229,0.00006979,-0.19802060,-0.07019925,0.16743676,0.22730215,0.000133
 23,-0.00053564,-0.00010888,-0.00000640,0.00014115,-0.00003373,-0.00088
 428,0.00074216,0.00002397,-0.00012885,-0.00017502,0.00002591,-0.004248
 63,0.00311470,-0.00282710,-0.00060525,-0.00033150,0.00051527,-0.000868
 47,-0.00050604,0.00059479,0.00024939,0.00000033,-0.00048178,-0.0247104
 2,-0.00630519,0.02407649,0.00028531,0.00054021,-0.00053568,0.00651735,
 -0.00176008,-0.00030941,-0.00005618,-0.00003801,0.00001048,0.00094663,
 0.00040995,-0.00029593,-0.00005032,-0.00016177,0.00012012,-0.06021501,
 -0.04413764,0.04589503,0.08364191,0.04900240,0.00006848,0.00016991,0.0
 0004915,-0.00000973,-0.00006220,0.00003302,0.00009462,-0.00056312,0.00
 041485,0.00003382,0.00009514,0.00004887,-0.00133415,-0.00117320,0.0003
 6942,0.00018603,-0.00014714,0.00000522,0.00022433,0.00003337,-0.000113
 54,-0.00038946,-0.00033869,0.00079435,-0.01404105,-0.00621830,0.012123
 75,-0.00009594,-0.00000745,0.00004033,0.00051301,0.00078864,-0.0029686
 4,-0.00001478,0.00002851,-0.00004602,-0.00028864,0.00006140,-0.0000653
 4,0.00002551,0.00000796,0.00001114,0.21509555,0.07399475,-0.26800854,-
 0.20006762,-0.06666956,0.25731197||-0.00000068,0.00000059,-0.00000305,
 0.00000012,0.00000086,-0.00000115,0.03143148,0.01707656,-0.02001431,0.
 00000141,0.00000362,-0.00000152,0.00000121,0.00000019,0.00000152,-0.05
 951860,-0.03233236,0.03790370,-0.00000137,-0.00000029,-0.00000409,-0.0
 0000203,0.00000324,-0.00000168,-0.00000063,-0.00000247,-0.00000278,0.0
 0004281,-0.00000030,-0.00001188,0.00000010,0.00000036,-0.00000040,0.00
 000188,-0.00000168,0.00000266,-0.00002768,-0.00001293,0.00001884,0.028
 06995,0.01526737,-0.01788478,0.00000148,-0.00000158,-0.00000019,0.0000
 0055,-0.00000119,-0.00000088|||@


 You don't have to suffer to be a poet.
 Adolescence is enough suffering for anyone.
                             -- John Ciardi
 Job cpu time:  0 days  0 hours  4 minutes 13.0 seconds.
 File lengths (MBytes):  RWF=     26 Int=      0 D2E=      0 Chk=      8 Scr=      1
 Normal termination of Gaussian 03 at Fri Apr 01 16:09:28 2016.
