 Entering Link 1 = c:\G03W05\l1.exe PID=      2648.
  
 Copyright (c) 1988,1990,1992,1993,1995,1998,2003,2004,2007, Gaussian, Inc.
                  All Rights Reserved.
  
 This is the Gaussian(R) 03 program.  It is based on the
 the Gaussian(R) 98 system (copyright 1998, Gaussian, Inc.),
 the Gaussian(R) 94 system (copyright 1995, Gaussian, Inc.),
 the Gaussian 92(TM) system (copyright 1992, Gaussian, Inc.),
 the Gaussian 90(TM) system (copyright 1990, Gaussian, Inc.),
 the Gaussian 88(TM) system (copyright 1988, Gaussian, Inc.),
 the Gaussian 86(TM) system (copyright 1986, Carnegie Mellon
 University), and the Gaussian 82(TM) system (copyright 1983,
 Carnegie Mellon University). Gaussian is a federally registered
 trademark of Gaussian, Inc.
  
 This software contains proprietary and confidential information,
 including trade secrets, belonging to Gaussian, Inc.
  
 This software is provided under written license and may be
 used, copied, transmitted, or stored only in accord with that
 written license.
  
 The following legend is applicable only to US Government
 contracts under FAR:
  
                    RESTRICTED RIGHTS LEGEND
  
 Use, reproduction and disclosure by the US Government is
 subject to restrictions as set forth in subparagraphs (a)
 and (c) of the Commercial Computer Software - Restricted
 Rights clause in FAR 52.227-19.
  
 Gaussian, Inc.
 340 Quinnipiac St., Bldg. 40, Wallingford CT 06492
  
  
 ---------------------------------------------------------------
 Warning -- This program may not be used in any manner that
 competes with the business of Gaussian, Inc. or will provide
 assistance to any competitor of Gaussian, Inc.  The licensee
 of this program is prohibited from giving any competitor of
 Gaussian, Inc. access to this program.  By using this program,
 the user acknowledges that Gaussian, Inc. is engaged in the
 business of creating and licensing software in the field of
 computational chemistry and represents and warrants to the
 licensee that it is not a competitor of Gaussian, Inc. and that
 it will not use this program in any manner prohibited above.
 ---------------------------------------------------------------
  

 Cite this work as:
 Gaussian 03, Revision E.01,
 M. J. Frisch, G. W. Trucks, H. B. Schlegel, G. E. Scuseria, 
 M. A. Robb, J. R. Cheeseman, J. A. Montgomery, Jr., T. Vreven, 
 K. N. Kudin, J. C. Burant, J. M. Millam, S. S. Iyengar, J. Tomasi, 
 V. Barone, B. Mennucci, M. Cossi, G. Scalmani, N. Rega, 
 G. A. Petersson, H. Nakatsuji, M. Hada, M. Ehara, K. Toyota, 
 R. Fukuda, J. Hasegawa, M. Ishida, T. Nakajima, Y. Honda, O. Kitao, 
 H. Nakai, M. Klene, X. Li, J. E. Knox, H. P. Hratchian, J. B. Cross, 
 V. Bakken, C. Adamo, J. Jaramillo, R. Gomperts, R. E. Stratmann, 
 O. Yazyev, A. J. Austin, R. Cammi, C. Pomelli, J. W. Ochterski, 
 P. Y. Ayala, K. Morokuma, G. A. Voth, P. Salvador, J. J. Dannenberg, 
 V. G. Zakrzewski, S. Dapprich, A. D. Daniels, M. C. Strain, 
 O. Farkas, D. K. Malick, A. D. Rabuck, K. Raghavachari, 
 J. B. Foresman, J. V. Ortiz, Q. Cui, A. G. Baboul, S. Clifford, 
 J. Cioslowski, B. B. Stefanov, G. Liu, A. Liashenko, P. Piskorz, 
 I. Komaromi, R. L. Martin, D. J. Fox, T. Keith, M. A. Al-Laham, 
 C. Y. Peng, A. Nanayakkara, M. Challacombe, P. M. W. Gill, 
 B. Johnson, W. Chen, M. W. Wong, C. Gonzalez, and J. A. Pople, 
 Gaussian, Inc., Wallingford CT, 2004.
 
 ******************************************
 Gaussian 03:  IA32W-G03RevE.01 11-Sep-2007
                29-Mar-2016 
 ******************************************
 %chk=E:\YangJ\Amiano\Val\opt-rs\s\Val-S-opt-6-311gdp.chk
 ------------------------------------------------
 # opt freq b3lyp/6-311++g(d,p) geom=connectivity
 ------------------------------------------------
 1/14=-1,18=20,26=3,38=1,57=2/1,3;
 2/9=110,17=6,18=5,40=1/2;
 3/5=4,6=6,7=1111,11=2,16=1,25=1,30=1,74=-5/1,2,3;
 4//1;
 5/5=2,38=5/2;
 6/7=2,8=2,9=2,10=2,28=1/1;
 7//1,2,3,16;
 1/14=-1,18=20/3(3);
 2/9=110/2;
 6/7=2,8=2,9=2,10=2,19=2,28=1/1;
 99//99;
 2/9=110/2;
 3/5=4,6=6,7=1111,11=2,16=1,25=1,30=1,74=-5/1,2,3;
 4/5=5,16=3/1;
 5/5=2,38=5/2;
 7//1,2,3,16;
 1/14=-1,18=20/3(-5);
 2/9=110/2;
 6/7=2,8=2,9=2,10=2,19=2,28=1/1;
 99/9=1/99;
 ----------------------------
 Val-S-opt-freq-6-311++g(d,p)
 ----------------------------
 Symbolic Z-matrix:
 Charge =  0 Multiplicity = 1
 N                     0.11047   1.9639   -0.13428 
 H                    -0.17734   2.16267   0.82017 
 C                     0.01654   0.52581  -0.39034 
 H                     0.12898   0.35981  -1.46531 
 C                     1.15589  -0.22734   0.3478 
 C                    -1.34479  -0.02608   0.03391 
 C                     1.02223  -1.75247   0.23535 
 O                    -1.88702   0.21271   1.08581 
 H                     1.03713  -2.07444  -0.81096 
 H                     1.85743  -2.24014   0.74457 
 H                     0.10049  -2.12593   0.68886 
 H                    -0.50751   2.48428  -0.7483 
 O                    -1.90909  -0.81781  -0.91036 
 H                    -2.75746  -1.12867  -0.55678 
 H                     1.06931   0.04603   1.4074 
 C                     2.52283   0.23992  -0.16727 
 H                     2.61415   1.32489  -0.11558 
 H                     3.32575  -0.20804   0.42493 
 H                     2.66861  -0.06593  -1.20933 
 

 GradGradGradGradGradGradGradGradGradGradGradGradGradGradGradGradGradGrad
 Berny optimization.
 Initialization pass.
                           ----------------------------
                           !    Initial Parameters    !
                           ! (Angstroms and Degrees)  !
 --------------------------                            --------------------------
 ! Name  Definition              Value          Derivative Info.                !
 --------------------------------------------------------------------------------
 ! R1    R(1,2)                  1.0165         estimate D2E/DX2                !
 ! R2    R(1,3)                  1.4637         estimate D2E/DX2                !
 ! R3    R(1,12)                 1.0147         estimate D2E/DX2                !
 ! R4    R(3,4)                  1.0935         estimate D2E/DX2                !
 ! R5    R(3,5)                  1.5525         estimate D2E/DX2                !
 ! R6    R(3,6)                  1.529          estimate D2E/DX2                !
 ! R7    R(5,7)                  1.5351         estimate D2E/DX2                !
 ! R8    R(5,15)                 1.0977         estimate D2E/DX2                !
 ! R9    R(5,16)                 1.5337         estimate D2E/DX2                !
 ! R10   R(6,8)                  1.2073         estimate D2E/DX2                !
 ! R11   R(6,13)                 1.3553         estimate D2E/DX2                !
 ! R12   R(7,9)                  1.0948         estimate D2E/DX2                !
 ! R13   R(7,10)                 1.093          estimate D2E/DX2                !
 ! R14   R(7,11)                 1.093          estimate D2E/DX2                !
 ! R15   R(13,14)                0.9702         estimate D2E/DX2                !
 ! R16   R(16,17)                1.09           estimate D2E/DX2                !
 ! R17   R(16,18)                1.0936         estimate D2E/DX2                !
 ! R18   R(16,19)                1.0958         estimate D2E/DX2                !
 ! A1    A(2,1,3)              109.7677         estimate D2E/DX2                !
 ! A2    A(2,1,12)             107.1845         estimate D2E/DX2                !
 ! A3    A(3,1,12)             111.0324         estimate D2E/DX2                !
 ! A4    A(1,3,4)              108.3324         estimate D2E/DX2                !
 ! A5    A(1,3,5)              110.2647         estimate D2E/DX2                !
 ! A6    A(1,3,6)              111.2982         estimate D2E/DX2                !
 ! A7    A(4,3,5)              108.5595         estimate D2E/DX2                !
 ! A8    A(4,3,6)              108.0305         estimate D2E/DX2                !
 ! A9    A(5,3,6)              110.2662         estimate D2E/DX2                !
 ! A10   A(3,5,7)              112.5351         estimate D2E/DX2                !
 ! A11   A(3,5,15)             106.2754         estimate D2E/DX2                !
 ! A12   A(3,5,16)             110.2809         estimate D2E/DX2                !
 ! A13   A(7,5,15)             108.1355         estimate D2E/DX2                !
 ! A14   A(7,5,16)             110.8358         estimate D2E/DX2                !
 ! A15   A(15,5,16)            108.578          estimate D2E/DX2                !
 ! A16   A(3,6,8)              124.7679         estimate D2E/DX2                !
 ! A17   A(3,6,13)             112.845          estimate D2E/DX2                !
 ! A18   A(8,6,13)             122.3834         estimate D2E/DX2                !
 ! A19   A(5,7,9)              111.1612         estimate D2E/DX2                !
 ! A20   A(5,7,10)             110.036          estimate D2E/DX2                !
 ! A21   A(5,7,11)             112.4869         estimate D2E/DX2                !
 ! A22   A(9,7,10)             107.6759         estimate D2E/DX2                !
 ! A23   A(9,7,11)             107.91           estimate D2E/DX2                !
 ! A24   A(10,7,11)            107.3752         estimate D2E/DX2                !
 ! A25   A(6,13,14)            107.2968         estimate D2E/DX2                !
 ! A26   A(5,16,17)            111.2229         estimate D2E/DX2                !
 ! A27   A(5,16,18)            110.3469         estimate D2E/DX2                !
 ! A28   A(5,16,19)            110.6655         estimate D2E/DX2                !
 ! A29   A(17,16,18)           108.6944         estimate D2E/DX2                !
 ! A30   A(17,16,19)           108.1665         estimate D2E/DX2                !
 ! A31   A(18,16,19)           107.6356         estimate D2E/DX2                !
 ! D1    D(2,1,3,4)            168.5204         estimate D2E/DX2                !
 ! D2    D(2,1,3,5)            -72.8094         estimate D2E/DX2                !
 ! D3    D(2,1,3,6)             49.8905         estimate D2E/DX2                !
 ! D4    D(12,1,3,4)            50.1905         estimate D2E/DX2                !
 ! D5    D(12,1,3,5)           168.8607         estimate D2E/DX2                !
 ! D6    D(12,1,3,6)           -68.4394         estimate D2E/DX2                !
 ! D7    D(1,3,5,7)            174.0244         estimate D2E/DX2                !
 ! D8    D(1,3,5,15)            55.8468         estimate D2E/DX2                !
 ! D9    D(1,3,5,16)           -61.6513         estimate D2E/DX2                !
 ! D10   D(4,3,5,7)            -67.4443         estimate D2E/DX2                !
 ! D11   D(4,3,5,15)           174.3781         estimate D2E/DX2                !
 ! D12   D(4,3,5,16)            56.88           estimate D2E/DX2                !
 ! D13   D(6,3,5,7)             50.7214         estimate D2E/DX2                !
 ! D14   D(6,3,5,15)           -67.4563         estimate D2E/DX2                !
 ! D15   D(6,3,5,16)           175.0457         estimate D2E/DX2                !
 ! D16   D(1,3,6,8)            -46.6833         estimate D2E/DX2                !
 ! D17   D(1,3,6,13)           132.6306         estimate D2E/DX2                !
 ! D18   D(4,3,6,8)           -165.4941         estimate D2E/DX2                !
 ! D19   D(4,3,6,13)            13.8198         estimate D2E/DX2                !
 ! D20   D(5,3,6,8)             76.0158         estimate D2E/DX2                !
 ! D21   D(5,3,6,13)          -104.6703         estimate D2E/DX2                !
 ! D22   D(3,5,7,9)             59.2751         estimate D2E/DX2                !
 ! D23   D(3,5,7,10)           178.4666         estimate D2E/DX2                !
 ! D24   D(3,5,7,11)           -61.8649         estimate D2E/DX2                !
 ! D25   D(15,5,7,9)           176.3522         estimate D2E/DX2                !
 ! D26   D(15,5,7,10)          -64.4564         estimate D2E/DX2                !
 ! D27   D(15,5,7,11)           55.2122         estimate D2E/DX2                !
 ! D28   D(16,5,7,9)           -64.7427         estimate D2E/DX2                !
 ! D29   D(16,5,7,10)           54.4488         estimate D2E/DX2                !
 ! D30   D(16,5,7,11)          174.1173         estimate D2E/DX2                !
 ! D31   D(3,5,16,17)           53.1556         estimate D2E/DX2                !
 ! D32   D(3,5,16,18)          173.8682         estimate D2E/DX2                !
 ! D33   D(3,5,16,19)          -67.1051         estimate D2E/DX2                !
 ! D34   D(7,5,16,17)          178.4518         estimate D2E/DX2                !
 ! D35   D(7,5,16,18)          -60.8356         estimate D2E/DX2                !
 ! D36   D(7,5,16,19)           58.1912         estimate D2E/DX2                !
 ! D37   D(15,5,16,17)         -62.9104         estimate D2E/DX2                !
 ! D38   D(15,5,16,18)          57.8022         estimate D2E/DX2                !
 ! D39   D(15,5,16,19)         176.8289         estimate D2E/DX2                !
 ! D40   D(3,6,13,14)          179.4195         estimate D2E/DX2                !
 ! D41   D(8,6,13,14)           -1.2479         estimate D2E/DX2                !
 --------------------------------------------------------------------------------
 Trust Radius=3.00D-01 FncErr=1.00D-07 GrdErr=1.00D-06
 Number of steps in this run= 100 maximum allowed number of steps= 114.
 GradGradGradGradGradGradGradGradGradGradGradGradGradGradGradGradGradGrad

                          Input orientation:                          
 ---------------------------------------------------------------------
 Center     Atomic     Atomic              Coordinates (Angstroms)
 Number     Number      Type              X           Y           Z
 ---------------------------------------------------------------------
    1          7             0        0.110465    1.963899   -0.134275
    2          1             0       -0.177342    2.162670    0.820173
    3          6             0        0.016537    0.525809   -0.390344
    4          1             0        0.128976    0.359805   -1.465307
    5          6             0        1.155887   -0.227343    0.347798
    6          6             0       -1.344794   -0.026082    0.033909
    7          6             0        1.022230   -1.752471    0.235345
    8          8             0       -1.887024    0.212709    1.085808
    9          1             0        1.037130   -2.074436   -0.810956
   10          1             0        1.857433   -2.240141    0.744570
   11          1             0        0.100487   -2.125925    0.688861
   12          1             0       -0.507508    2.484275   -0.748295
   13          8             0       -1.909093   -0.817812   -0.910356
   14          1             0       -2.757461   -1.128673   -0.556776
   15          1             0        1.069314    0.046031    1.407399
   16          6             0        2.522832    0.239922   -0.167271
   17          1             0        2.614149    1.324886   -0.115582
   18          1             0        3.325746   -0.208038    0.424931
   19          1             0        2.668605   -0.065931   -1.209332
 ---------------------------------------------------------------------
                    Distance matrix (angstroms):
                    1          2          3          4          5
     1  N    0.000000
     2  H    1.016520   0.000000
     3  C    1.463727   2.045056   0.000000
     4  H    2.084492   2.927041   1.093501   0.000000
     5  C    2.475246   2.777193   1.552485   2.164865   0.000000
     6  C    2.471050   2.602266   1.528985   2.137418   2.528327
     7  C    3.844391   4.136342   2.567774   2.855141   1.535098
     8  O    2.923223   2.606899   2.429115   3.254855   3.161900
     9  H    4.198185   4.699850   2.824854   2.679263   2.183705
    10  H    4.636617   4.850852   3.511041   3.825028   2.168168
    11  H    4.171848   4.299591   2.864162   3.289393   2.198819
    12  H    1.014743   1.634788   2.058723   2.330792   3.364695
    13  O    3.524036   3.857067   2.404949   2.418363   3.365369
    14  H    4.238810   4.402947   3.234204   3.372316   4.116424
    15  H    2.640903   2.525697   2.137851   3.038936   1.097717
    16  C    2.965249   3.458749   2.532392   2.725769   1.533679
    17  H    2.584013   3.061036   2.731594   2.988181   2.179602
    18  H    3.920211   4.248305   3.486269   3.756965   2.171315
    19  H    3.438028   4.145476   2.838021   2.587758   2.176930
                    6          7          8          9         10
     6  C    0.000000
     7  C    2.936630   0.000000
     8  O    1.207280   3.612337   0.000000
     9  H    3.253170   1.094819   4.168863   0.000000
    10  H    3.957443   1.093022   4.489307   1.766357   0.000000
    11  H    2.631946   1.093048   3.094669   1.769012   1.761536
    12  H    2.759490   4.610603   3.229088   4.813697   5.490146
    13  O    1.355325   3.283119   2.246582   3.204561   4.352990
    14  H    1.886861   3.911859   2.292389   3.918928   4.922003
    15  H    2.778415   2.147216   2.978445   3.068960   2.507400
    16  C    3.881979   2.526566   4.584515   2.824517   2.724871
    17  H    4.185773   3.482453   4.789659   3.811289   3.744582
    18  H    4.690410   2.779821   5.271315   3.201347   2.527361
    19  H    4.201739   2.764428   5.108724   2.618111   3.033632
                   11         12         13         14         15
    11  H    0.000000
    12  H    4.867137   0.000000
    13  O    2.882198   3.590889   0.000000
    14  H    3.273223   4.260559   0.970248   0.000000
    15  H    2.484415   3.616410   3.871579   4.458937   0.000000
    16  C    3.492556   3.815451   4.616594   5.468662   2.151719
    17  H    4.344390   3.389580   5.067794   5.921891   2.518225
    18  H    3.761681   4.828959   5.436760   6.230307   2.474122
    19  H    3.800256   4.099244   4.648659   5.567535   3.068802
                   16         17         18         19
    16  C    0.000000
    17  H    1.090026   0.000000
    18  H    1.093637   1.774368   0.000000
    19  H    1.095759   1.770205   1.767157   0.000000
 Stoichiometry    C5H11NO2
 Framework group  C1[X(C5H11NO2)]
 Deg. of freedom    51
 Full point group                 C1
 Largest Abelian subgroup         C1      NOp   1
 Largest concise Abelian subgroup C1      NOp   1
                         Standard orientation:                         
 ---------------------------------------------------------------------
 Center     Atomic     Atomic              Coordinates (Angstroms)
 Number     Number      Type              X           Y           Z
 ---------------------------------------------------------------------
    1          7             0        0.110465    1.963899   -0.134275
    2          1             0       -0.177342    2.162670    0.820173
    3          6             0        0.016537    0.525809   -0.390344
    4          1             0        0.128976    0.359805   -1.465307
    5          6             0        1.155887   -0.227343    0.347798
    6          6             0       -1.344794   -0.026082    0.033909
    7          6             0        1.022230   -1.752471    0.235345
    8          8             0       -1.887024    0.212709    1.085808
    9          1             0        1.037130   -2.074436   -0.810956
   10          1             0        1.857433   -2.240141    0.744570
   11          1             0        0.100487   -2.125925    0.688861
   12          1             0       -0.507508    2.484275   -0.748295
   13          8             0       -1.909093   -0.817812   -0.910356
   14          1             0       -2.757461   -1.128674   -0.556776
   15          1             0        1.069314    0.046031    1.407399
   16          6             0        2.522832    0.239922   -0.167271
   17          1             0        2.614149    1.324886   -0.115582
   18          1             0        3.325746   -0.208037    0.424931
   19          1             0        2.668605   -0.065931   -1.209332
 ---------------------------------------------------------------------
 Rotational constants (GHZ):      2.7966868      1.5502307      1.2168929
 Standard basis: 6-311++G(d,p) (5D, 7F)
 There are   253 symmetry adapted basis functions of A   symmetry.
 Integral buffers will be    262144 words long.
 Raffenetti 2 integral format.
 Two-electron integral symmetry is turned on.
   253 basis functions,   387 primitive gaussians,   261 cartesian basis functions
    32 alpha electrons       32 beta electrons
       nuclear repulsion energy       405.3471460435 Hartrees.
 NAtoms=   19 NActive=   19 NUniq=   19 SFac= 7.50D-01 NAtFMM=   80 NAOKFM=F Big=F
 One-electron integrals computed using PRISM.
 NBasis=   253 RedAO= T  NBF=   253
 NBsUse=   253 1.00D-06 NBFU=   253
 Harris functional with IExCor=  402 diagonalized for initial guess.
 ExpMin= 3.60D-02 ExpMax= 8.59D+03 ExpMxC= 1.30D+03 IAcc=3 IRadAn=         5 AccDes= 0.00D+00
 HarFok:  IExCor= 402 AccDes= 0.00D+00 IRadAn=         5 IDoV=1
 ScaDFX=  1.000000  1.000000  1.000000  1.000000
 Initial guess orbital symmetries:
       Occupied  (A) (A) (A) (A) (A) (A) (A) (A) (A) (A) (A) (A)
                 (A) (A) (A) (A) (A) (A) (A) (A) (A) (A) (A) (A)
                 (A) (A) (A) (A) (A) (A) (A) (A)
       Virtual   (A) (A) (A) (A) (A) (A) (A) (A) (A) (A) (A) (A)
                 (A) (A) (A) (A) (A) (A) (A) (A) (A) (A) (A) (A)
                 (A) (A) (A) (A) (A) (A) (A) (A) (A) (A) (A) (A)
                 (A) (A) (A) (A) (A) (A) (A) (A) (A) (A) (A) (A)
                 (A) (A) (A) (A) (A) (A) (A) (A) (A) (A) (A) (A)
                 (A) (A) (A) (A) (A) (A) (A) (A) (A) (A) (A) (A)
                 (A) (A) (A) (A) (A) (A) (A) (A) (A) (A) (A) (A)
                 (A) (A) (A) (A) (A) (A) (A) (A) (A) (A) (A) (A)
                 (A) (A) (A) (A) (A) (A) (A) (A) (A) (A) (A) (A)
                 (A) (A) (A) (A) (A) (A) (A) (A) (A) (A) (A) (A)
                 (A) (A) (A) (A) (A) (A) (A) (A) (A) (A) (A) (A)
                 (A) (A) (A) (A) (A) (A) (A) (A) (A) (A) (A) (A)
                 (A) (A) (A) (A) (A) (A) (A) (A) (A) (A) (A) (A)
                 (A) (A) (A) (A) (A) (A) (A) (A) (A) (A) (A) (A)
                 (A) (A) (A) (A) (A) (A) (A) (A) (A) (A) (A) (A)
                 (A) (A) (A) (A) (A) (A) (A) (A) (A) (A) (A) (A)
                 (A) (A) (A) (A) (A) (A) (A) (A) (A) (A) (A) (A)
                 (A) (A) (A) (A) (A) (A) (A) (A) (A) (A) (A) (A)
                 (A) (A) (A) (A) (A)
 The electronic state of the initial guess is 1-A.
 Requested convergence on RMS density matrix=1.00D-08 within 128 cycles.
 Requested convergence on MAX density matrix=1.00D-06.
 Requested convergence on             energy=1.00D-06.
 No special actions if energy rises.
 SCF Done:  E(RB+HF-LYP) =  -402.502950606     A.U. after   13 cycles
             Convg  =    0.7909D-08             -V/T =  2.0041
             S**2   =   0.0000

 **********************************************************************

            Population analysis using the SCF density.

 **********************************************************************

 Orbital symmetries:
       Occupied  (A) (A) (A) (A) (A) (A) (A) (A) (A) (A) (A) (A)
                 (A) (A) (A) (A) (A) (A) (A) (A) (A) (A) (A) (A)
                 (A) (A) (A) (A) (A) (A) (A) (A)
       Virtual   (A) (A) (A) (A) (A) (A) (A) (A) (A) (A) (A) (A)
                 (A) (A) (A) (A) (A) (A) (A) (A) (A) (A) (A) (A)
                 (A) (A) (A) (A) (A) (A) (A) (A) (A) (A) (A) (A)
                 (A) (A) (A) (A) (A) (A) (A) (A) (A) (A) (A) (A)
                 (A) (A) (A) (A) (A) (A) (A) (A) (A) (A) (A) (A)
                 (A) (A) (A) (A) (A) (A) (A) (A) (A) (A) (A) (A)
                 (A) (A) (A) (A) (A) (A) (A) (A) (A) (A) (A) (A)
                 (A) (A) (A) (A) (A) (A) (A) (A) (A) (A) (A) (A)
                 (A) (A) (A) (A) (A) (A) (A) (A) (A) (A) (A) (A)
                 (A) (A) (A) (A) (A) (A) (A) (A) (A) (A) (A) (A)
                 (A) (A) (A) (A) (A) (A) (A) (A) (A) (A) (A) (A)
                 (A) (A) (A) (A) (A) (A) (A) (A) (A) (A) (A) (A)
                 (A) (A) (A) (A) (A) (A) (A) (A) (A) (A) (A) (A)
                 (A) (A) (A) (A) (A) (A) (A) (A) (A) (A) (A) (A)
                 (A) (A) (A) (A) (A) (A) (A) (A) (A) (A) (A) (A)
                 (A) (A) (A) (A) (A) (A) (A) (A) (A) (A) (A) (A)
                 (A) (A) (A) (A) (A) (A) (A) (A) (A) (A) (A) (A)
                 (A) (A) (A) (A) (A) (A) (A) (A) (A) (A) (A) (A)
                 (A) (A) (A) (A) (A)
 The electronic state is 1-A.
 Alpha  occ. eigenvalues --  -19.18459 -19.12681 -14.30705 -10.31293 -10.22226
 Alpha  occ. eigenvalues --  -10.18706 -10.16489 -10.15676  -1.12447  -1.03515
 Alpha  occ. eigenvalues --   -0.90612  -0.80250  -0.71659  -0.68829  -0.62817
 Alpha  occ. eigenvalues --   -0.57227  -0.52700  -0.49983  -0.49197  -0.48026
 Alpha  occ. eigenvalues --   -0.46109  -0.42738  -0.42633  -0.40116  -0.39477
 Alpha  occ. eigenvalues --   -0.38643  -0.35331  -0.34423  -0.33825  -0.33440
 Alpha  occ. eigenvalues --   -0.30015  -0.25833
 Alpha virt. eigenvalues --   -0.01741  -0.01372   0.00151   0.00293   0.01251
 Alpha virt. eigenvalues --    0.02534   0.03742   0.03893   0.04725   0.05332
 Alpha virt. eigenvalues --    0.06801   0.07186   0.07769   0.08160   0.08726
 Alpha virt. eigenvalues --    0.09563   0.10233   0.10403   0.10645   0.12108
 Alpha virt. eigenvalues --    0.12692   0.13229   0.13312   0.14061   0.14541
 Alpha virt. eigenvalues --    0.14614   0.15191   0.16245   0.16548   0.17156
 Alpha virt. eigenvalues --    0.17642   0.17828   0.18593   0.18984   0.20305
 Alpha virt. eigenvalues --    0.20973   0.21164   0.21653   0.22643   0.22952
 Alpha virt. eigenvalues --    0.23817   0.24305   0.25034   0.25912   0.26088
 Alpha virt. eigenvalues --    0.27332   0.28053   0.28470   0.30395   0.31135
 Alpha virt. eigenvalues --    0.31670   0.31988   0.32513   0.33797   0.34416
 Alpha virt. eigenvalues --    0.35874   0.36523   0.36968   0.37394   0.40042
 Alpha virt. eigenvalues --    0.42199   0.43772   0.45409   0.47655   0.49435
 Alpha virt. eigenvalues --    0.51909   0.53280   0.54288   0.55769   0.58722
 Alpha virt. eigenvalues --    0.58912   0.59512   0.61707   0.63306   0.64951
 Alpha virt. eigenvalues --    0.65970   0.66249   0.68320   0.69221   0.69527
 Alpha virt. eigenvalues --    0.70370   0.71648   0.73512   0.74849   0.75557
 Alpha virt. eigenvalues --    0.77603   0.78486   0.79131   0.83530   0.86324
 Alpha virt. eigenvalues --    0.88028   0.89670   0.94340   0.97890   1.00509
 Alpha virt. eigenvalues --    1.05431   1.06500   1.07972   1.10658   1.12829
 Alpha virt. eigenvalues --    1.15178   1.15926   1.17976   1.20879   1.23429
 Alpha virt. eigenvalues --    1.24470   1.25138   1.28333   1.31400   1.41796
 Alpha virt. eigenvalues --    1.42028   1.42719   1.44605   1.46272   1.47070
 Alpha virt. eigenvalues --    1.49832   1.53755   1.55283   1.56254   1.58255
 Alpha virt. eigenvalues --    1.58810   1.60071   1.61817   1.62677   1.63895
 Alpha virt. eigenvalues --    1.65847   1.67557   1.68289   1.70617   1.73624
 Alpha virt. eigenvalues --    1.74512   1.77581   1.78436   1.80182   1.82148
 Alpha virt. eigenvalues --    1.84149   1.87636   1.91633   1.93638   1.95077
 Alpha virt. eigenvalues --    1.98167   2.00151   2.02977   2.05832   2.07800
 Alpha virt. eigenvalues --    2.11794   2.14143   2.15726   2.19898   2.24673
 Alpha virt. eigenvalues --    2.28860   2.32486   2.35541   2.39610   2.45087
 Alpha virt. eigenvalues --    2.48210   2.49208   2.51354   2.53204   2.53412
 Alpha virt. eigenvalues --    2.55155   2.57828   2.60539   2.61810   2.61975
 Alpha virt. eigenvalues --    2.65210   2.67443   2.70318   2.71305   2.73331
 Alpha virt. eigenvalues --    2.76113   2.76513   2.79417   2.84288   2.86753
 Alpha virt. eigenvalues --    2.88488   2.89773   2.93851   2.96386   2.99284
 Alpha virt. eigenvalues --    2.99496   3.03360   3.04546   3.09829   3.11470
 Alpha virt. eigenvalues --    3.16882   3.18314   3.20802   3.28278   3.37187
 Alpha virt. eigenvalues --    3.43188   3.58854   3.63356   3.65861   3.78155
 Alpha virt. eigenvalues --    3.79093   3.79998   3.83739   3.84241   3.98969
 Alpha virt. eigenvalues --    4.05667   4.10797   4.15784   4.28626   4.32336
 Alpha virt. eigenvalues --    4.72918   4.84327   4.99674   5.08019   5.17733
 Alpha virt. eigenvalues --    5.39375   5.58350   5.84709  23.79293  23.80910
 Alpha virt. eigenvalues --   23.83741  23.97808  23.98210  35.60887  49.86670
 Alpha virt. eigenvalues --   50.01936
          Condensed to atoms (all electrons):
              1          2          3          4          5          6
     1  N    6.717537   0.382798  -0.186331  -0.045695   0.157789  -0.013034
     2  H    0.382798   0.446257   0.004028   0.014725  -0.032904  -0.031277
     3  C   -0.186331   0.004028   8.528044   0.380103  -1.659518  -0.980206
     4  H   -0.045695   0.014725   0.380103   0.558308   0.060621  -0.132543
     5  C    0.157789  -0.032904  -1.659518   0.060621   7.441970   0.214466
     6  C   -0.013034  -0.031277  -0.980206  -0.132543   0.214466   6.558778
     7  C    0.005535   0.004780   0.222222  -0.095144  -0.649845   0.135160
     8  O   -0.052434   0.009899   0.113239   0.003678  -0.115201   0.433875
     9  H   -0.000002  -0.000523  -0.072226   0.009157   0.108891   0.010889
    10  H   -0.000881   0.000053   0.040634  -0.002479  -0.101727  -0.005312
    11  H   -0.010556   0.002061   0.037324  -0.001117  -0.120526  -0.029836
    12  H    0.391570  -0.050222  -0.039608  -0.021826   0.004472   0.016376
    13  O    0.004393  -0.001119   0.076457   0.002602  -0.132528   0.062457
    14  H   -0.003689  -0.000266  -0.069867   0.001981   0.009417   0.085211
    15  H   -0.012473   0.001907  -0.106984   0.026984   0.610923  -0.005316
    16  C   -0.078396   0.005504   0.310082  -0.014978  -0.152303  -0.153730
    17  H    0.009213  -0.000235  -0.057211   0.000043  -0.036503   0.007026
    18  H    0.003932   0.000137   0.044430  -0.001046  -0.118413  -0.006153
    19  H   -0.009886   0.000355  -0.014025   0.007801   0.053059  -0.004300
              7          8          9         10         11         12
     1  N    0.005535  -0.052434  -0.000002  -0.000881  -0.010556   0.391570
     2  H    0.004780   0.009899  -0.000523   0.000053   0.002061  -0.050222
     3  C    0.222222   0.113239  -0.072226   0.040634   0.037324  -0.039608
     4  H   -0.095144   0.003678   0.009157  -0.002479  -0.001117  -0.021826
     5  C   -0.649845  -0.115201   0.108891  -0.101727  -0.120526   0.004472
     6  C    0.135160   0.433875   0.010889  -0.005312  -0.029836   0.016376
     7  C    6.097770   0.011632   0.332623   0.420764   0.468243  -0.000101
     8  O    0.011632   8.016162  -0.000703  -0.000742  -0.005248  -0.001863
     9  H    0.332623  -0.000703   0.556034  -0.033971  -0.047673  -0.000166
    10  H    0.420764  -0.000742  -0.033971   0.560650  -0.024726   0.000080
    11  H    0.468243  -0.005248  -0.047673  -0.024726   0.581741  -0.000681
    12  H   -0.000101  -0.001863  -0.000166   0.000080  -0.000681   0.462337
    13  O   -0.005156  -0.152163   0.000537  -0.001918  -0.004198   0.001311
    14  H   -0.000515   0.000845   0.000190   0.000059  -0.000738  -0.000256
    15  H   -0.150288  -0.004725   0.016994  -0.015215  -0.017317  -0.002361
    16  C   -0.128936   0.004924  -0.034459   0.006612   0.006850   0.000029
    17  H    0.015988   0.000275  -0.002537   0.002156  -0.001965   0.002554
    18  H    0.003772  -0.000143   0.001008   0.000481   0.002436   0.000192
    19  H   -0.014638   0.000153   0.009643   0.001549  -0.001501  -0.000879
             13         14         15         16         17         18
     1  N    0.004393  -0.003689  -0.012473  -0.078396   0.009213   0.003932
     2  H   -0.001119  -0.000266   0.001907   0.005504  -0.000235   0.000137
     3  C    0.076457  -0.069867  -0.106984   0.310082  -0.057211   0.044430
     4  H    0.002602   0.001981   0.026984  -0.014978   0.000043  -0.001046
     5  C   -0.132528   0.009417   0.610923  -0.152303  -0.036503  -0.118413
     6  C    0.062457   0.085211  -0.005316  -0.153730   0.007026  -0.006153
     7  C   -0.005156  -0.000515  -0.150288  -0.128936   0.015988   0.003772
     8  O   -0.152163   0.000845  -0.004725   0.004924   0.000275  -0.000143
     9  H    0.000537   0.000190   0.016994  -0.034459  -0.002537   0.001008
    10  H   -0.001918   0.000059  -0.015215   0.006612   0.002156   0.000481
    11  H   -0.004198  -0.000738  -0.017317   0.006850  -0.001965   0.002436
    12  H    0.001311  -0.000256  -0.002361   0.000029   0.002554   0.000192
    13  O    8.019160   0.233549   0.004718   0.007079   0.000440   0.000394
    14  H    0.233549   0.470462   0.000724  -0.002518  -0.000055  -0.000189
    15  H    0.004718   0.000724   0.578382  -0.093948  -0.005699  -0.015835
    16  C    0.007079  -0.002518  -0.093948   5.647093   0.422361   0.431565
    17  H    0.000440  -0.000055  -0.005699   0.422361   0.521881  -0.022232
    18  H    0.000394  -0.000189  -0.015835   0.431565  -0.022232   0.578510
    19  H   -0.000080   0.000090   0.010678   0.334022  -0.040708  -0.038858
             19
     1  N   -0.009886
     2  H    0.000355
     3  C   -0.014025
     4  H    0.007801
     5  C    0.053059
     6  C   -0.004300
     7  C   -0.014638
     8  O    0.000153
     9  H    0.009643
    10  H    0.001549
    11  H   -0.001501
    12  H   -0.000879
    13  O   -0.000080
    14  H    0.000090
    15  H    0.010678
    16  C    0.334022
    17  H   -0.040708
    18  H   -0.038858
    19  H    0.579963
 Mulliken atomic charges:
              1
     1  N   -0.259392
     2  H    0.244042
     3  C   -0.570588
     4  H    0.248825
     5  C    0.457859
     6  C   -0.162529
     7  C   -0.673867
     8  O   -0.261460
     9  H    0.146295
    10  H    0.153933
    11  H    0.167429
    12  H    0.239041
    13  O   -0.115935
    14  H    0.275565
    15  H    0.178852
    16  C   -0.516854
    17  H    0.185208
    18  H    0.136012
    19  H    0.127563
 Sum of Mulliken charges=   0.00000
 Atomic charges with hydrogens summed into heavy atoms:
              1
     1  N    0.223691
     2  H    0.000000
     3  C   -0.321762
     4  H    0.000000
     5  C    0.636711
     6  C   -0.162529
     7  C   -0.206210
     8  O   -0.261460
     9  H    0.000000
    10  H    0.000000
    11  H    0.000000
    12  H    0.000000
    13  O    0.159630
    14  H    0.000000
    15  H    0.000000
    16  C   -0.068072
    17  H    0.000000
    18  H    0.000000
    19  H    0.000000
 Sum of Mulliken charges=   0.00000
 Electronic spatial extent (au):  <R**2>=  1070.7067
 Charge=     0.0000 electrons
 Dipole moment (field-independent basis, Debye):
    X=    -0.3308    Y=    -0.6284    Z=    -1.0509  Tot=     1.2684
 Quadrupole moment (field-independent basis, Debye-Ang):
   XX=   -49.2716   YY=   -49.0772   ZZ=   -52.7840
   XY=    -0.4937   XZ=     4.2565   YZ=    -1.0167
 Traceless Quadrupole moment (field-independent basis, Debye-Ang):
   XX=     1.1060   YY=     1.3004   ZZ=    -2.4064
   XY=    -0.4937   XZ=     4.2565   YZ=    -1.0167
 Octapole moment (field-independent basis, Debye-Ang**2):
  XXX=   -30.1205  YYY=     3.6487  ZZZ=    -2.3828  XYY=   -17.7940
  XXY=   -13.2380  XXZ=    -7.9108  XZZ=     3.4564  YZZ=     3.8183
  YYZ=     1.5386  XYZ=     2.6179
 Hexadecapole moment (field-independent basis, Debye-Ang**3):
 XXXX=  -745.6420 YYYY=  -430.2615 ZZZZ=  -175.7078 XXXY=    38.1768
 XXXZ=    34.7147 YYYX=   -10.5361 YYYZ=     3.2884 ZZZX=     3.3856
 ZZZY=     1.8859 XXYY=  -193.7687 XXZZ=  -176.1117 YYZZ=   -95.1449
 XXYZ=    -0.4100 YYXZ=     6.3326 ZZXY=    -1.9542
 N-N= 4.053471460435D+02 E-N=-1.751218607935D+03  KE= 4.008661597646D+02
 ***** Axes restored to original set *****
 -------------------------------------------------------------------
 Center     Atomic                   Forces (Hartrees/Bohr)
 Number     Number              X              Y              Z
 -------------------------------------------------------------------
    1          7           0.000005402   -0.000051405   -0.000002863
    2          1          -0.000014596    0.000012561    0.000022825
    3          6           0.000048923    0.000062280   -0.000031656
    4          1          -0.000002660   -0.000006007    0.000000970
    5          6          -0.000002749   -0.000009501    0.000004094
    6          6          -0.000050724   -0.000021226    0.000045738
    7          6          -0.000000575    0.000014763   -0.000005198
    8          8           0.000019460   -0.000000488   -0.000014152
    9          1           0.000005101    0.000002003   -0.000006846
   10          1           0.000002984   -0.000005157   -0.000002868
   11          1           0.000001266   -0.000006412   -0.000004670
   12          1          -0.000015086    0.000014750    0.000001875
   13          8           0.000009286   -0.000002498   -0.000026734
   14          1          -0.000005116   -0.000007524   -0.000012404
   15          1           0.000000008   -0.000005406    0.000005301
   16          6          -0.000013672   -0.000004623    0.000008313
   17          1           0.000002562    0.000003945    0.000009846
   18          1           0.000006454    0.000002632    0.000005776
   19          1           0.000003732    0.000007314    0.000002653
 -------------------------------------------------------------------
 Cartesian Forces:  Max     0.000062280 RMS     0.000018369

 GradGradGradGradGradGradGradGradGradGradGradGradGradGradGradGradGradGrad
 Berny optimization.
 Internal  Forces:  Max     0.000037679 RMS     0.000008403
 Search for a local minimum.
 Step number   1 out of a maximum of 100
 All quantities printed in internal units (Hartrees-Bohrs-Radians)
 Second derivative matrix not updated -- first step.
     Eigenvalues ---    0.00230   0.00302   0.00320   0.00383   0.00839
     Eigenvalues ---    0.00849   0.02283   0.03399   0.04250   0.04471
     Eigenvalues ---    0.04675   0.04879   0.05194   0.05308   0.05478
     Eigenvalues ---    0.05563   0.05599   0.06312   0.16000   0.16000
     Eigenvalues ---    0.16000   0.16000   0.16000   0.16000   0.16000
     Eigenvalues ---    0.16000   0.16000   0.16698   0.17082   0.17247
     Eigenvalues ---    0.18533   0.24999   0.25000   0.27441   0.28958
     Eigenvalues ---    0.29086   0.29517   0.33936   0.34156   0.34262
     Eigenvalues ---    0.34396   0.34411   0.34463   0.34466   0.34810
     Eigenvalues ---    0.36502   0.44898   0.45188   0.53326   0.53904
     Eigenvalues ---    1.012481000.000001000.000001000.000001000.00000
     Eigenvalues --- 1000.000001000.000001000.000001000.000001000.00000
     Eigenvalues --- 1000.000001000.000001000.000001000.000001000.00000
     Eigenvalues --- 1000.000001000.000001000.000001000.000001000.00000
     Eigenvalues --- 1000.000001000.000001000.000001000.000001000.00000
     Eigenvalues --- 1000.000001000.000001000.000001000.000001000.00000
     Eigenvalues --- 1000.000001000.000001000.000001000.000001000.00000
     Eigenvalues --- 1000.000001000.000001000.000001000.000001000.00000
 RFO step:  Lambda=-3.60202913D-08.
 Linear search not attempted -- first point.
 Iteration  1 RMS(Cart)=  0.00028712 RMS(Int)=  0.00000004
 Iteration  2 RMS(Cart)=  0.00000007 RMS(Int)=  0.00000000
 Variable       Old X    -DE/DX   Delta X   Delta X   Delta X     New X
                                 (Linear)    (Quad)   (Total)
    R1        1.92095   0.00002   0.00000   0.00005   0.00005   1.92099
    R2        2.76604  -0.00002   0.00000  -0.00006  -0.00006   2.76598
    R3        1.91759   0.00002   0.00000   0.00004   0.00004   1.91762
    R4        2.06642   0.00000   0.00000   0.00000   0.00000   2.06642
    R5        2.93377   0.00001   0.00000   0.00004   0.00004   2.93381
    R6        2.88936   0.00004   0.00000   0.00013   0.00013   2.88949
    R7        2.90091  -0.00001   0.00000  -0.00002  -0.00002   2.90089
    R8        2.07438   0.00000   0.00000   0.00001   0.00001   2.07439
    R9        2.89823   0.00000   0.00000  -0.00001  -0.00001   2.89822
   R10        2.28143  -0.00002   0.00000  -0.00002  -0.00002   2.28141
   R11        2.56119   0.00002   0.00000   0.00004   0.00004   2.56123
   R12        2.06891   0.00000   0.00000   0.00001   0.00001   2.06891
   R13        2.06551   0.00000   0.00000   0.00001   0.00001   2.06552
   R14        2.06556   0.00000   0.00000   0.00001   0.00001   2.06557
   R15        1.83350   0.00001   0.00000   0.00001   0.00001   1.83352
   R16        2.05985   0.00000   0.00000   0.00000   0.00000   2.05985
   R17        2.06667   0.00001   0.00000   0.00002   0.00002   2.06669
   R18        2.07068   0.00000   0.00000   0.00000   0.00000   2.07069
    A1        1.91581   0.00002   0.00000   0.00010   0.00010   1.91591
    A2        1.87072  -0.00001   0.00000  -0.00008  -0.00008   1.87064
    A3        1.93788   0.00001   0.00000   0.00003   0.00003   1.93791
    A4        1.89076   0.00000   0.00000   0.00011   0.00011   1.89087
    A5        1.92448   0.00001   0.00000   0.00007   0.00007   1.92456
    A6        1.94252   0.00000   0.00000  -0.00004  -0.00004   1.94248
    A7        1.89472   0.00000   0.00000   0.00002   0.00002   1.89474
    A8        1.88549   0.00000   0.00000  -0.00004  -0.00004   1.88544
    A9        1.92451  -0.00001   0.00000  -0.00012  -0.00012   1.92439
   A10        1.96411   0.00000   0.00000  -0.00002  -0.00002   1.96408
   A11        1.85486   0.00000   0.00000   0.00005   0.00005   1.85490
   A12        1.92476   0.00001   0.00000   0.00003   0.00003   1.92480
   A13        1.88732   0.00000   0.00000  -0.00002  -0.00002   1.88730
   A14        1.93445   0.00000   0.00000  -0.00003  -0.00003   1.93442
   A15        1.89504   0.00000   0.00000  -0.00001  -0.00001   1.89504
   A16        2.17761  -0.00001   0.00000  -0.00005  -0.00005   2.17756
   A17        1.96952  -0.00001   0.00000  -0.00006  -0.00006   1.96946
   A18        2.13599   0.00003   0.00000   0.00011   0.00011   2.13610
   A19        1.94013   0.00000   0.00000   0.00000   0.00000   1.94013
   A20        1.92049   0.00000   0.00000   0.00001   0.00001   1.92051
   A21        1.96327   0.00000   0.00000   0.00002   0.00002   1.96329
   A22        1.87930   0.00000   0.00000  -0.00002  -0.00002   1.87928
   A23        1.88338   0.00000   0.00000   0.00000   0.00000   1.88339
   A24        1.87405   0.00000   0.00000  -0.00003  -0.00003   1.87402
   A25        1.87268   0.00001   0.00000   0.00007   0.00007   1.87275
   A26        1.94120   0.00000   0.00000   0.00002   0.00002   1.94122
   A27        1.92592   0.00001   0.00000   0.00003   0.00003   1.92595
   A28        1.93148   0.00000   0.00000   0.00001   0.00001   1.93149
   A29        1.89708  -0.00001   0.00000  -0.00004  -0.00004   1.89704
   A30        1.88786   0.00000   0.00000  -0.00001  -0.00001   1.88785
   A31        1.87859   0.00000   0.00000  -0.00002  -0.00002   1.87858
    D1        2.94124   0.00000   0.00000  -0.00008  -0.00008   2.94116
    D2       -1.27076   0.00001   0.00000   0.00006   0.00006  -1.27070
    D3        0.87075   0.00000   0.00000  -0.00007  -0.00007   0.87069
    D4        0.87599   0.00000   0.00000  -0.00006  -0.00006   0.87593
    D5        2.94717   0.00001   0.00000   0.00008   0.00008   2.94725
    D6       -1.19449   0.00000   0.00000  -0.00005  -0.00005  -1.19454
    D7        3.03730  -0.00001   0.00000  -0.00035  -0.00035   3.03695
    D8        0.97471   0.00000   0.00000  -0.00034  -0.00034   0.97437
    D9       -1.07602  -0.00001   0.00000  -0.00037  -0.00037  -1.07639
   D10       -1.17713   0.00001   0.00000  -0.00016  -0.00016  -1.17728
   D11        3.04347   0.00001   0.00000  -0.00015  -0.00015   3.04332
   D12        0.99274   0.00000   0.00000  -0.00018  -0.00018   0.99256
   D13        0.88525   0.00000   0.00000  -0.00027  -0.00027   0.88499
   D14       -1.17733   0.00000   0.00000  -0.00026  -0.00026  -1.17759
   D15        3.05512   0.00000   0.00000  -0.00029  -0.00029   3.05483
   D16       -0.81478   0.00000   0.00000  -0.00027  -0.00027  -0.81505
   D17        2.31484   0.00000   0.00000  -0.00055  -0.00055   2.31429
   D18       -2.88842   0.00000   0.00000  -0.00035  -0.00035  -2.88877
   D19        0.24120  -0.00001   0.00000  -0.00063  -0.00063   0.24057
   D20        1.32673   0.00000   0.00000  -0.00028  -0.00028   1.32644
   D21       -1.82684   0.00000   0.00000  -0.00057  -0.00057  -1.82741
   D22        1.03455   0.00000   0.00000  -0.00008  -0.00008   1.03446
   D23        3.11483   0.00000   0.00000  -0.00009  -0.00009   3.11474
   D24       -1.07975   0.00000   0.00000  -0.00011  -0.00011  -1.07985
   D25        3.07793   0.00000   0.00000  -0.00005  -0.00005   3.07787
   D26       -1.12498   0.00000   0.00000  -0.00006  -0.00006  -1.12504
   D27        0.96363   0.00000   0.00000  -0.00007  -0.00007   0.96356
   D28       -1.12997   0.00000   0.00000  -0.00009  -0.00009  -1.13006
   D29        0.95031   0.00000   0.00000  -0.00010  -0.00010   0.95021
   D30        3.03892   0.00000   0.00000  -0.00011  -0.00011   3.03881
   D31        0.92774   0.00000   0.00000   0.00021   0.00021   0.92795
   D32        3.03457   0.00000   0.00000   0.00020   0.00020   3.03477
   D33       -1.17120   0.00000   0.00000   0.00021   0.00021  -1.17100
   D34        3.11457   0.00000   0.00000   0.00019   0.00019   3.11476
   D35       -1.06178   0.00000   0.00000   0.00018   0.00018  -1.06160
   D36        1.01563   0.00000   0.00000   0.00018   0.00018   1.01581
   D37       -1.09799   0.00000   0.00000   0.00014   0.00014  -1.09785
   D38        1.00884   0.00000   0.00000   0.00013   0.00013   1.00897
   D39        3.08625   0.00000   0.00000   0.00014   0.00014   3.08638
   D40        3.13146   0.00000   0.00000   0.00016   0.00016   3.13162
   D41       -0.02178   0.00000   0.00000  -0.00011  -0.00011  -0.02189
         Item               Value     Threshold  Converged?
 Maximum Force            0.000038     0.000450     YES
 RMS     Force            0.000008     0.000300     YES
 Maximum Displacement     0.001020     0.001800     YES
 RMS     Displacement     0.000287     0.001200     YES
 Predicted change in Energy=-1.801034D-08
 Optimization completed.
    -- Stationary point found.
                           ----------------------------
                           !   Optimized Parameters   !
                           ! (Angstroms and Degrees)  !
 --------------------------                            --------------------------
 ! Name  Definition              Value          Derivative Info.                !
 --------------------------------------------------------------------------------
 ! R1    R(1,2)                  1.0165         -DE/DX =    0.0                 !
 ! R2    R(1,3)                  1.4637         -DE/DX =    0.0                 !
 ! R3    R(1,12)                 1.0147         -DE/DX =    0.0                 !
 ! R4    R(3,4)                  1.0935         -DE/DX =    0.0                 !
 ! R5    R(3,5)                  1.5525         -DE/DX =    0.0                 !
 ! R6    R(3,6)                  1.529          -DE/DX =    0.0                 !
 ! R7    R(5,7)                  1.5351         -DE/DX =    0.0                 !
 ! R8    R(5,15)                 1.0977         -DE/DX =    0.0                 !
 ! R9    R(5,16)                 1.5337         -DE/DX =    0.0                 !
 ! R10   R(6,8)                  1.2073         -DE/DX =    0.0                 !
 ! R11   R(6,13)                 1.3553         -DE/DX =    0.0                 !
 ! R12   R(7,9)                  1.0948         -DE/DX =    0.0                 !
 ! R13   R(7,10)                 1.093          -DE/DX =    0.0                 !
 ! R14   R(7,11)                 1.093          -DE/DX =    0.0                 !
 ! R15   R(13,14)                0.9702         -DE/DX =    0.0                 !
 ! R16   R(16,17)                1.09           -DE/DX =    0.0                 !
 ! R17   R(16,18)                1.0936         -DE/DX =    0.0                 !
 ! R18   R(16,19)                1.0958         -DE/DX =    0.0                 !
 ! A1    A(2,1,3)              109.7677         -DE/DX =    0.0                 !
 ! A2    A(2,1,12)             107.1845         -DE/DX =    0.0                 !
 ! A3    A(3,1,12)             111.0324         -DE/DX =    0.0                 !
 ! A4    A(1,3,4)              108.3324         -DE/DX =    0.0                 !
 ! A5    A(1,3,5)              110.2647         -DE/DX =    0.0                 !
 ! A6    A(1,3,6)              111.2982         -DE/DX =    0.0                 !
 ! A7    A(4,3,5)              108.5595         -DE/DX =    0.0                 !
 ! A8    A(4,3,6)              108.0305         -DE/DX =    0.0                 !
 ! A9    A(5,3,6)              110.2662         -DE/DX =    0.0                 !
 ! A10   A(3,5,7)              112.5351         -DE/DX =    0.0                 !
 ! A11   A(3,5,15)             106.2754         -DE/DX =    0.0                 !
 ! A12   A(3,5,16)             110.2809         -DE/DX =    0.0                 !
 ! A13   A(7,5,15)             108.1355         -DE/DX =    0.0                 !
 ! A14   A(7,5,16)             110.8358         -DE/DX =    0.0                 !
 ! A15   A(15,5,16)            108.578          -DE/DX =    0.0                 !
 ! A16   A(3,6,8)              124.7679         -DE/DX =    0.0                 !
 ! A17   A(3,6,13)             112.845          -DE/DX =    0.0                 !
 ! A18   A(8,6,13)             122.3834         -DE/DX =    0.0                 !
 ! A19   A(5,7,9)              111.1612         -DE/DX =    0.0                 !
 ! A20   A(5,7,10)             110.036          -DE/DX =    0.0                 !
 ! A21   A(5,7,11)             112.4869         -DE/DX =    0.0                 !
 ! A22   A(9,7,10)             107.6759         -DE/DX =    0.0                 !
 ! A23   A(9,7,11)             107.91           -DE/DX =    0.0                 !
 ! A24   A(10,7,11)            107.3752         -DE/DX =    0.0                 !
 ! A25   A(6,13,14)            107.2968         -DE/DX =    0.0                 !
 ! A26   A(5,16,17)            111.2229         -DE/DX =    0.0                 !
 ! A27   A(5,16,18)            110.3469         -DE/DX =    0.0                 !
 ! A28   A(5,16,19)            110.6655         -DE/DX =    0.0                 !
 ! A29   A(17,16,18)           108.6944         -DE/DX =    0.0                 !
 ! A30   A(17,16,19)           108.1665         -DE/DX =    0.0                 !
 ! A31   A(18,16,19)           107.6356         -DE/DX =    0.0                 !
 ! D1    D(2,1,3,4)            168.5204         -DE/DX =    0.0                 !
 ! D2    D(2,1,3,5)            -72.8094         -DE/DX =    0.0                 !
 ! D3    D(2,1,3,6)             49.8905         -DE/DX =    0.0                 !
 ! D4    D(12,1,3,4)            50.1905         -DE/DX =    0.0                 !
 ! D5    D(12,1,3,5)           168.8607         -DE/DX =    0.0                 !
 ! D6    D(12,1,3,6)           -68.4394         -DE/DX =    0.0                 !
 ! D7    D(1,3,5,7)            174.0244         -DE/DX =    0.0                 !
 ! D8    D(1,3,5,15)            55.8468         -DE/DX =    0.0                 !
 ! D9    D(1,3,5,16)           -61.6513         -DE/DX =    0.0                 !
 ! D10   D(4,3,5,7)            -67.4443         -DE/DX =    0.0                 !
 ! D11   D(4,3,5,15)           174.3781         -DE/DX =    0.0                 !
 ! D12   D(4,3,5,16)            56.88           -DE/DX =    0.0                 !
 ! D13   D(6,3,5,7)             50.7214         -DE/DX =    0.0                 !
 ! D14   D(6,3,5,15)           -67.4563         -DE/DX =    0.0                 !
 ! D15   D(6,3,5,16)           175.0457         -DE/DX =    0.0                 !
 ! D16   D(1,3,6,8)            -46.6833         -DE/DX =    0.0                 !
 ! D17   D(1,3,6,13)           132.6306         -DE/DX =    0.0                 !
 ! D18   D(4,3,6,8)           -165.4941         -DE/DX =    0.0                 !
 ! D19   D(4,3,6,13)            13.8198         -DE/DX =    0.0                 !
 ! D20   D(5,3,6,8)             76.0158         -DE/DX =    0.0                 !
 ! D21   D(5,3,6,13)          -104.6703         -DE/DX =    0.0                 !
 ! D22   D(3,5,7,9)             59.2751         -DE/DX =    0.0                 !
 ! D23   D(3,5,7,10)           178.4666         -DE/DX =    0.0                 !
 ! D24   D(3,5,7,11)           -61.8649         -DE/DX =    0.0                 !
 ! D25   D(15,5,7,9)           176.3522         -DE/DX =    0.0                 !
 ! D26   D(15,5,7,10)          -64.4564         -DE/DX =    0.0                 !
 ! D27   D(15,5,7,11)           55.2122         -DE/DX =    0.0                 !
 ! D28   D(16,5,7,9)           -64.7427         -DE/DX =    0.0                 !
 ! D29   D(16,5,7,10)           54.4488         -DE/DX =    0.0                 !
 ! D30   D(16,5,7,11)          174.1173         -DE/DX =    0.0                 !
 ! D31   D(3,5,16,17)           53.1556         -DE/DX =    0.0                 !
 ! D32   D(3,5,16,18)          173.8682         -DE/DX =    0.0                 !
 ! D33   D(3,5,16,19)          -67.1051         -DE/DX =    0.0                 !
 ! D34   D(7,5,16,17)          178.4518         -DE/DX =    0.0                 !
 ! D35   D(7,5,16,18)          -60.8356         -DE/DX =    0.0                 !
 ! D36   D(7,5,16,19)           58.1912         -DE/DX =    0.0                 !
 ! D37   D(15,5,16,17)         -62.9104         -DE/DX =    0.0                 !
 ! D38   D(15,5,16,18)          57.8022         -DE/DX =    0.0                 !
 ! D39   D(15,5,16,19)         176.8289         -DE/DX =    0.0                 !
 ! D40   D(3,6,13,14)          179.4195         -DE/DX =    0.0                 !
 ! D41   D(8,6,13,14)           -1.2479         -DE/DX =    0.0                 !
 --------------------------------------------------------------------------------
 GradGradGradGradGradGradGradGradGradGradGradGradGradGradGradGradGradGrad

                          Input orientation:                          
 ---------------------------------------------------------------------
 Center     Atomic     Atomic              Coordinates (Angstroms)
 Number     Number      Type              X           Y           Z
 ---------------------------------------------------------------------
    1          7             0        0.110465    1.963899   -0.134275
    2          1             0       -0.177342    2.162670    0.820173
    3          6             0        0.016537    0.525809   -0.390344
    4          1             0        0.128976    0.359805   -1.465307
    5          6             0        1.155887   -0.227343    0.347798
    6          6             0       -1.344794   -0.026082    0.033909
    7          6             0        1.022230   -1.752471    0.235345
    8          8             0       -1.887024    0.212709    1.085808
    9          1             0        1.037130   -2.074436   -0.810956
   10          1             0        1.857433   -2.240141    0.744570
   11          1             0        0.100487   -2.125925    0.688861
   12          1             0       -0.507508    2.484275   -0.748295
   13          8             0       -1.909093   -0.817812   -0.910356
   14          1             0       -2.757461   -1.128673   -0.556776
   15          1             0        1.069314    0.046031    1.407399
   16          6             0        2.522832    0.239922   -0.167271
   17          1             0        2.614149    1.324886   -0.115582
   18          1             0        3.325746   -0.208038    0.424931
   19          1             0        2.668605   -0.065931   -1.209332
 ---------------------------------------------------------------------
                    Distance matrix (angstroms):
                    1          2          3          4          5
     1  N    0.000000
     2  H    1.016520   0.000000
     3  C    1.463727   2.045056   0.000000
     4  H    2.084492   2.927041   1.093501   0.000000
     5  C    2.475246   2.777193   1.552485   2.164865   0.000000
     6  C    2.471050   2.602266   1.528985   2.137418   2.528327
     7  C    3.844391   4.136342   2.567774   2.855141   1.535098
     8  O    2.923223   2.606899   2.429115   3.254855   3.161900
     9  H    4.198185   4.699850   2.824854   2.679263   2.183705
    10  H    4.636617   4.850852   3.511041   3.825028   2.168168
    11  H    4.171848   4.299591   2.864162   3.289393   2.198819
    12  H    1.014743   1.634788   2.058723   2.330792   3.364695
    13  O    3.524036   3.857067   2.404949   2.418363   3.365369
    14  H    4.238810   4.402947   3.234204   3.372316   4.116424
    15  H    2.640903   2.525697   2.137851   3.038936   1.097717
    16  C    2.965249   3.458749   2.532392   2.725769   1.533679
    17  H    2.584013   3.061036   2.731594   2.988181   2.179602
    18  H    3.920211   4.248305   3.486269   3.756965   2.171315
    19  H    3.438028   4.145476   2.838021   2.587758   2.176930
                    6          7          8          9         10
     6  C    0.000000
     7  C    2.936630   0.000000
     8  O    1.207280   3.612337   0.000000
     9  H    3.253170   1.094819   4.168863   0.000000
    10  H    3.957443   1.093022   4.489307   1.766357   0.000000
    11  H    2.631946   1.093048   3.094669   1.769012   1.761536
    12  H    2.759490   4.610603   3.229088   4.813697   5.490146
    13  O    1.355325   3.283119   2.246582   3.204561   4.352990
    14  H    1.886861   3.911859   2.292389   3.918928   4.922003
    15  H    2.778415   2.147216   2.978445   3.068960   2.507400
    16  C    3.881979   2.526566   4.584515   2.824517   2.724871
    17  H    4.185773   3.482453   4.789659   3.811289   3.744582
    18  H    4.690410   2.779821   5.271315   3.201347   2.527361
    19  H    4.201739   2.764428   5.108724   2.618111   3.033632
                   11         12         13         14         15
    11  H    0.000000
    12  H    4.867137   0.000000
    13  O    2.882198   3.590889   0.000000
    14  H    3.273223   4.260559   0.970248   0.000000
    15  H    2.484415   3.616410   3.871579   4.458937   0.000000
    16  C    3.492556   3.815451   4.616594   5.468662   2.151719
    17  H    4.344390   3.389580   5.067794   5.921891   2.518225
    18  H    3.761681   4.828959   5.436760   6.230307   2.474122
    19  H    3.800256   4.099244   4.648659   5.567535   3.068802
                   16         17         18         19
    16  C    0.000000
    17  H    1.090026   0.000000
    18  H    1.093637   1.774368   0.000000
    19  H    1.095759   1.770205   1.767157   0.000000
 Stoichiometry    C5H11NO2
 Framework group  C1[X(C5H11NO2)]
 Deg. of freedom    51
 Full point group                 C1
 Largest Abelian subgroup         C1      NOp   1
 Largest concise Abelian subgroup C1      NOp   1
                         Standard orientation:                         
 ---------------------------------------------------------------------
 Center     Atomic     Atomic              Coordinates (Angstroms)
 Number     Number      Type              X           Y           Z
 ---------------------------------------------------------------------
    1          7             0        0.110465    1.963899   -0.134275
    2          1             0       -0.177342    2.162670    0.820173
    3          6             0        0.016537    0.525809   -0.390344
    4          1             0        0.128976    0.359805   -1.465307
    5          6             0        1.155887   -0.227343    0.347798
    6          6             0       -1.344794   -0.026082    0.033909
    7          6             0        1.022230   -1.752471    0.235345
    8          8             0       -1.887024    0.212709    1.085808
    9          1             0        1.037130   -2.074436   -0.810956
   10          1             0        1.857433   -2.240141    0.744570
   11          1             0        0.100487   -2.125925    0.688861
   12          1             0       -0.507508    2.484275   -0.748295
   13          8             0       -1.909093   -0.817812   -0.910356
   14          1             0       -2.757461   -1.128674   -0.556776
   15          1             0        1.069314    0.046031    1.407399
   16          6             0        2.522832    0.239922   -0.167271
   17          1             0        2.614149    1.324886   -0.115582
   18          1             0        3.325746   -0.208037    0.424931
   19          1             0        2.668605   -0.065931   -1.209332
 ---------------------------------------------------------------------
 Rotational constants (GHZ):      2.7966868      1.5502307      1.2168929

 **********************************************************************

            Population analysis using the SCF density.

 **********************************************************************

 Orbital symmetries:
       Occupied  (A) (A) (A) (A) (A) (A) (A) (A) (A) (A) (A) (A)
                 (A) (A) (A) (A) (A) (A) (A) (A) (A) (A) (A) (A)
                 (A) (A) (A) (A) (A) (A) (A) (A)
       Virtual   (A) (A) (A) (A) (A) (A) (A) (A) (A) (A) (A) (A)
                 (A) (A) (A) (A) (A) (A) (A) (A) (A) (A) (A) (A)
                 (A) (A) (A) (A) (A) (A) (A) (A) (A) (A) (A) (A)
                 (A) (A) (A) (A) (A) (A) (A) (A) (A) (A) (A) (A)
                 (A) (A) (A) (A) (A) (A) (A) (A) (A) (A) (A) (A)
                 (A) (A) (A) (A) (A) (A) (A) (A) (A) (A) (A) (A)
                 (A) (A) (A) (A) (A) (A) (A) (A) (A) (A) (A) (A)
                 (A) (A) (A) (A) (A) (A) (A) (A) (A) (A) (A) (A)
                 (A) (A) (A) (A) (A) (A) (A) (A) (A) (A) (A) (A)
                 (A) (A) (A) (A) (A) (A) (A) (A) (A) (A) (A) (A)
                 (A) (A) (A) (A) (A) (A) (A) (A) (A) (A) (A) (A)
                 (A) (A) (A) (A) (A) (A) (A) (A) (A) (A) (A) (A)
                 (A) (A) (A) (A) (A) (A) (A) (A) (A) (A) (A) (A)
                 (A) (A) (A) (A) (A) (A) (A) (A) (A) (A) (A) (A)
                 (A) (A) (A) (A) (A) (A) (A) (A) (A) (A) (A) (A)
                 (A) (A) (A) (A) (A) (A) (A) (A) (A) (A) (A) (A)
                 (A) (A) (A) (A) (A) (A) (A) (A) (A) (A) (A) (A)
                 (A) (A) (A) (A) (A) (A) (A) (A) (A) (A) (A) (A)
                 (A) (A) (A) (A) (A)
 The electronic state is 1-A.
 Alpha  occ. eigenvalues --  -19.18459 -19.12681 -14.30705 -10.31293 -10.22226
 Alpha  occ. eigenvalues --  -10.18706 -10.16489 -10.15676  -1.12447  -1.03515
 Alpha  occ. eigenvalues --   -0.90612  -0.80250  -0.71659  -0.68829  -0.62817
 Alpha  occ. eigenvalues --   -0.57227  -0.52700  -0.49983  -0.49197  -0.48026
 Alpha  occ. eigenvalues --   -0.46109  -0.42738  -0.42633  -0.40116  -0.39477
 Alpha  occ. eigenvalues --   -0.38643  -0.35331  -0.34423  -0.33825  -0.33440
 Alpha  occ. eigenvalues --   -0.30015  -0.25833
 Alpha virt. eigenvalues --   -0.01741  -0.01372   0.00151   0.00293   0.01251
 Alpha virt. eigenvalues --    0.02534   0.03742   0.03893   0.04725   0.05332
 Alpha virt. eigenvalues --    0.06801   0.07186   0.07769   0.08160   0.08726
 Alpha virt. eigenvalues --    0.09563   0.10233   0.10403   0.10645   0.12108
 Alpha virt. eigenvalues --    0.12692   0.13229   0.13312   0.14061   0.14541
 Alpha virt. eigenvalues --    0.14614   0.15191   0.16245   0.16548   0.17156
 Alpha virt. eigenvalues --    0.17642   0.17828   0.18593   0.18984   0.20305
 Alpha virt. eigenvalues --    0.20973   0.21164   0.21653   0.22643   0.22952
 Alpha virt. eigenvalues --    0.23817   0.24305   0.25034   0.25912   0.26088
 Alpha virt. eigenvalues --    0.27332   0.28053   0.28470   0.30395   0.31135
 Alpha virt. eigenvalues --    0.31670   0.31988   0.32513   0.33797   0.34416
 Alpha virt. eigenvalues --    0.35874   0.36523   0.36968   0.37394   0.40042
 Alpha virt. eigenvalues --    0.42199   0.43772   0.45409   0.47655   0.49435
 Alpha virt. eigenvalues --    0.51909   0.53280   0.54288   0.55769   0.58722
 Alpha virt. eigenvalues --    0.58912   0.59512   0.61707   0.63306   0.64951
 Alpha virt. eigenvalues --    0.65970   0.66249   0.68320   0.69221   0.69527
 Alpha virt. eigenvalues --    0.70370   0.71648   0.73512   0.74849   0.75557
 Alpha virt. eigenvalues --    0.77603   0.78486   0.79131   0.83530   0.86324
 Alpha virt. eigenvalues --    0.88028   0.89670   0.94340   0.97890   1.00509
 Alpha virt. eigenvalues --    1.05431   1.06500   1.07972   1.10658   1.12829
 Alpha virt. eigenvalues --    1.15178   1.15926   1.17976   1.20879   1.23429
 Alpha virt. eigenvalues --    1.24470   1.25138   1.28333   1.31400   1.41796
 Alpha virt. eigenvalues --    1.42028   1.42719   1.44605   1.46272   1.47070
 Alpha virt. eigenvalues --    1.49832   1.53755   1.55283   1.56254   1.58255
 Alpha virt. eigenvalues --    1.58810   1.60071   1.61817   1.62677   1.63895
 Alpha virt. eigenvalues --    1.65847   1.67557   1.68289   1.70617   1.73624
 Alpha virt. eigenvalues --    1.74512   1.77581   1.78436   1.80182   1.82148
 Alpha virt. eigenvalues --    1.84149   1.87636   1.91633   1.93638   1.95077
 Alpha virt. eigenvalues --    1.98167   2.00151   2.02977   2.05832   2.07800
 Alpha virt. eigenvalues --    2.11794   2.14143   2.15726   2.19898   2.24673
 Alpha virt. eigenvalues --    2.28860   2.32486   2.35541   2.39610   2.45087
 Alpha virt. eigenvalues --    2.48210   2.49208   2.51354   2.53204   2.53412
 Alpha virt. eigenvalues --    2.55155   2.57828   2.60539   2.61810   2.61975
 Alpha virt. eigenvalues --    2.65210   2.67443   2.70318   2.71305   2.73331
 Alpha virt. eigenvalues --    2.76113   2.76513   2.79417   2.84288   2.86753
 Alpha virt. eigenvalues --    2.88488   2.89773   2.93851   2.96386   2.99284
 Alpha virt. eigenvalues --    2.99496   3.03360   3.04546   3.09829   3.11470
 Alpha virt. eigenvalues --    3.16882   3.18314   3.20802   3.28278   3.37187
 Alpha virt. eigenvalues --    3.43188   3.58854   3.63356   3.65861   3.78155
 Alpha virt. eigenvalues --    3.79093   3.79998   3.83739   3.84241   3.98969
 Alpha virt. eigenvalues --    4.05667   4.10797   4.15784   4.28626   4.32336
 Alpha virt. eigenvalues --    4.72918   4.84327   4.99674   5.08019   5.17733
 Alpha virt. eigenvalues --    5.39375   5.58350   5.84709  23.79293  23.80910
 Alpha virt. eigenvalues --   23.83741  23.97808  23.98210  35.60887  49.86670
 Alpha virt. eigenvalues --   50.01936
          Condensed to atoms (all electrons):
              1          2          3          4          5          6
     1  N    6.717537   0.382798  -0.186331  -0.045695   0.157789  -0.013034
     2  H    0.382798   0.446257   0.004028   0.014725  -0.032904  -0.031277
     3  C   -0.186331   0.004028   8.528044   0.380103  -1.659518  -0.980206
     4  H   -0.045695   0.014725   0.380103   0.558308   0.060621  -0.132543
     5  C    0.157789  -0.032904  -1.659518   0.060621   7.441970   0.214466
     6  C   -0.013034  -0.031277  -0.980206  -0.132543   0.214466   6.558778
     7  C    0.005535   0.004780   0.222222  -0.095144  -0.649845   0.135160
     8  O   -0.052434   0.009899   0.113239   0.003678  -0.115201   0.433875
     9  H   -0.000002  -0.000523  -0.072226   0.009157   0.108891   0.010889
    10  H   -0.000881   0.000053   0.040634  -0.002479  -0.101727  -0.005312
    11  H   -0.010556   0.002061   0.037324  -0.001117  -0.120526  -0.029836
    12  H    0.391570  -0.050222  -0.039608  -0.021826   0.004472   0.016376
    13  O    0.004393  -0.001119   0.076457   0.002602  -0.132528   0.062457
    14  H   -0.003689  -0.000266  -0.069867   0.001981   0.009417   0.085211
    15  H   -0.012473   0.001907  -0.106984   0.026984   0.610923  -0.005316
    16  C   -0.078396   0.005504   0.310082  -0.014978  -0.152303  -0.153730
    17  H    0.009213  -0.000235  -0.057211   0.000043  -0.036503   0.007026
    18  H    0.003932   0.000137   0.044430  -0.001046  -0.118413  -0.006153
    19  H   -0.009886   0.000355  -0.014025   0.007801   0.053059  -0.004300
              7          8          9         10         11         12
     1  N    0.005535  -0.052434  -0.000002  -0.000881  -0.010556   0.391570
     2  H    0.004780   0.009899  -0.000523   0.000053   0.002061  -0.050222
     3  C    0.222222   0.113239  -0.072226   0.040634   0.037324  -0.039608
     4  H   -0.095144   0.003678   0.009157  -0.002479  -0.001117  -0.021826
     5  C   -0.649845  -0.115201   0.108891  -0.101727  -0.120526   0.004472
     6  C    0.135160   0.433875   0.010889  -0.005312  -0.029836   0.016376
     7  C    6.097770   0.011632   0.332623   0.420764   0.468243  -0.000101
     8  O    0.011632   8.016162  -0.000703  -0.000742  -0.005248  -0.001863
     9  H    0.332623  -0.000703   0.556034  -0.033971  -0.047673  -0.000166
    10  H    0.420764  -0.000742  -0.033971   0.560650  -0.024726   0.000080
    11  H    0.468243  -0.005248  -0.047673  -0.024726   0.581741  -0.000681
    12  H   -0.000101  -0.001863  -0.000166   0.000080  -0.000681   0.462337
    13  O   -0.005156  -0.152163   0.000537  -0.001918  -0.004198   0.001311
    14  H   -0.000515   0.000845   0.000190   0.000059  -0.000738  -0.000256
    15  H   -0.150288  -0.004725   0.016994  -0.015215  -0.017317  -0.002361
    16  C   -0.128936   0.004924  -0.034459   0.006612   0.006850   0.000029
    17  H    0.015988   0.000275  -0.002537   0.002156  -0.001965   0.002554
    18  H    0.003772  -0.000143   0.001008   0.000481   0.002436   0.000192
    19  H   -0.014638   0.000153   0.009643   0.001549  -0.001501  -0.000879
             13         14         15         16         17         18
     1  N    0.004393  -0.003689  -0.012473  -0.078396   0.009213   0.003932
     2  H   -0.001119  -0.000266   0.001907   0.005504  -0.000235   0.000137
     3  C    0.076457  -0.069867  -0.106984   0.310082  -0.057211   0.044430
     4  H    0.002602   0.001981   0.026984  -0.014978   0.000043  -0.001046
     5  C   -0.132528   0.009417   0.610923  -0.152303  -0.036503  -0.118413
     6  C    0.062457   0.085211  -0.005316  -0.153730   0.007026  -0.006153
     7  C   -0.005156  -0.000515  -0.150288  -0.128936   0.015988   0.003772
     8  O   -0.152163   0.000845  -0.004725   0.004924   0.000275  -0.000143
     9  H    0.000537   0.000190   0.016994  -0.034459  -0.002537   0.001008
    10  H   -0.001918   0.000059  -0.015215   0.006612   0.002156   0.000481
    11  H   -0.004198  -0.000738  -0.017317   0.006850  -0.001965   0.002436
    12  H    0.001311  -0.000256  -0.002361   0.000029   0.002554   0.000192
    13  O    8.019160   0.233549   0.004718   0.007079   0.000440   0.000394
    14  H    0.233549   0.470462   0.000724  -0.002518  -0.000055  -0.000189
    15  H    0.004718   0.000724   0.578382  -0.093948  -0.005699  -0.015835
    16  C    0.007079  -0.002518  -0.093948   5.647093   0.422361   0.431565
    17  H    0.000440  -0.000055  -0.005699   0.422361   0.521881  -0.022232
    18  H    0.000394  -0.000189  -0.015835   0.431565  -0.022232   0.578510
    19  H   -0.000080   0.000090   0.010678   0.334022  -0.040708  -0.038858
             19
     1  N   -0.009886
     2  H    0.000355
     3  C   -0.014025
     4  H    0.007801
     5  C    0.053059
     6  C   -0.004300
     7  C   -0.014638
     8  O    0.000153
     9  H    0.009643
    10  H    0.001549
    11  H   -0.001501
    12  H   -0.000879
    13  O   -0.000080
    14  H    0.000090
    15  H    0.010678
    16  C    0.334022
    17  H   -0.040708
    18  H   -0.038858
    19  H    0.579963
 Mulliken atomic charges:
              1
     1  N   -0.259392
     2  H    0.244042
     3  C   -0.570588
     4  H    0.248825
     5  C    0.457859
     6  C   -0.162529
     7  C   -0.673867
     8  O   -0.261460
     9  H    0.146295
    10  H    0.153933
    11  H    0.167429
    12  H    0.239041
    13  O   -0.115935
    14  H    0.275565
    15  H    0.178852
    16  C   -0.516854
    17  H    0.185208
    18  H    0.136012
    19  H    0.127563
 Sum of Mulliken charges=   0.00000
 Atomic charges with hydrogens summed into heavy atoms:
              1
     1  N    0.223691
     2  H    0.000000
     3  C   -0.321762
     4  H    0.000000
     5  C    0.636711
     6  C   -0.162529
     7  C   -0.206210
     8  O   -0.261460
     9  H    0.000000
    10  H    0.000000
    11  H    0.000000
    12  H    0.000000
    13  O    0.159630
    14  H    0.000000
    15  H    0.000000
    16  C   -0.068072
    17  H    0.000000
    18  H    0.000000
    19  H    0.000000
 Sum of Mulliken charges=   0.00000
 Electronic spatial extent (au):  <R**2>=  1070.7067
 Charge=     0.0000 electrons
 Dipole moment (field-independent basis, Debye):
    X=    -0.3308    Y=    -0.6284    Z=    -1.0509  Tot=     1.2684
 Quadrupole moment (field-independent basis, Debye-Ang):
   XX=   -49.2716   YY=   -49.0772   ZZ=   -52.7840
   XY=    -0.4937   XZ=     4.2565   YZ=    -1.0167
 Traceless Quadrupole moment (field-independent basis, Debye-Ang):
   XX=     1.1060   YY=     1.3004   ZZ=    -2.4064
   XY=    -0.4937   XZ=     4.2565   YZ=    -1.0167
 Octapole moment (field-independent basis, Debye-Ang**2):
  XXX=   -30.1205  YYY=     3.6487  ZZZ=    -2.3828  XYY=   -17.7940
  XXY=   -13.2380  XXZ=    -7.9108  XZZ=     3.4564  YZZ=     3.8183
  YYZ=     1.5386  XYZ=     2.6179
 Hexadecapole moment (field-independent basis, Debye-Ang**3):
 XXXX=  -745.6420 YYYY=  -430.2615 ZZZZ=  -175.7078 XXXY=    38.1768
 XXXZ=    34.7147 YYYX=   -10.5361 YYYZ=     3.2884 ZZZX=     3.3856
 ZZZY=     1.8859 XXYY=  -193.7687 XXZZ=  -176.1117 YYZZ=   -95.1449
 XXYZ=    -0.4100 YYXZ=     6.3326 ZZXY=    -1.9542
 N-N= 4.053471460435D+02 E-N=-1.751218607935D+03  KE= 4.008661597646D+02
 1|1|UNPC-UNK|FOpt|RB3LYP|6-311++G(d,p)|C5H11N1O2|PCUSER|29-Mar-2016|0|
 |# opt freq b3lyp/6-311++g(d,p) geom=connectivity||Val-S-opt-freq-6-31
 1++g(d,p)||0,1|N,0.110465,1.963899,-0.134275|H,-0.177342,2.16267,0.820
 173|C,0.016537,0.525809,-0.390344|H,0.128976,0.359805,-1.465307|C,1.15
 5887,-0.227343,0.347798|C,-1.344794,-0.026082,0.033909|C,1.02223,-1.75
 2471,0.235345|O,-1.887024,0.212709,1.085808|H,1.03713,-2.074436,-0.810
 956|H,1.857433,-2.240141,0.74457|H,0.100487,-2.125925,0.688861|H,-0.50
 7508,2.484275,-0.748295|O,-1.909093,-0.817812,-0.910356|H,-2.757461,-1
 .128673,-0.556776|H,1.069314,0.046031,1.407399|C,2.522832,0.239922,-0.
 167271|H,2.614149,1.324886,-0.115582|H,3.325746,-0.208038,0.424931|H,2
 .668605,-0.065931,-1.209332||Version=IA32W-G03RevE.01|State=1-A|HF=-40
 2.5029506|RMSD=7.909e-009|RMSF=1.837e-005|Thermal=0.|Dipole=-0.1301412
 ,-0.2472247,-0.4134646|PG=C01 [X(C5H11N1O2)]||@


 Life may have no meaning.  Or even worse, it may have a
 meaning of which I disapprove.
                                 -- Ashleigh Brilliant
 Job cpu time:  0 days  0 hours  6 minutes 43.0 seconds.
 File lengths (MBytes):  RWF=     45 Int=      0 D2E=      0 Chk=      8 Scr=      1
 Normal termination of Gaussian 03 at Tue Mar 29 17:00:06 2016.
 Link1:  Proceeding to internal job step number  2.
 ----------------------------------------------------------------------
 #N Geom=AllCheck Guess=Read SCRF=Check GenChk RB3LYP/6-311++G(d,p) Fre
 q
 ----------------------------------------------------------------------
 1/10=4,29=7,30=1,38=1,40=1,46=1/1,3;
 2/40=1/2;
 3/5=4,6=6,7=1111,11=2,16=1,25=1,30=1,70=2,71=2,74=-5/1,2,3;
 4/5=1,7=1/1;
 5/5=2,38=6/2;
 8/6=4,10=90,11=11/1;
 11/6=1,8=1,9=11,15=111,16=1/1,2,10;
 10/6=1/2;
 6/7=2,8=2,9=2,10=2,18=1,28=1/1;
 7/8=1,10=1,25=1/1,2,3,16;
 1/10=4,30=1,46=1/3;
 99//99;
 ----------------------------
 Val-S-opt-freq-6-311++g(d,p)
 ----------------------------
 Redundant internal coordinates taken from checkpoint file:
 E:\YangJ\Amiano\Val\opt-rs\s\Val-S-opt-6-311gdp.chk
 Charge =  0 Multiplicity = 1
 N,0,0.110465,1.963899,-0.134275
 H,0,-0.177342,2.16267,0.820173
 C,0,0.016537,0.525809,-0.390344
 H,0,0.128976,0.359805,-1.465307
 C,0,1.155887,-0.227343,0.347798
 C,0,-1.344794,-0.026082,0.033909
 C,0,1.02223,-1.752471,0.235345
 O,0,-1.887024,0.212709,1.085808
 H,0,1.03713,-2.074436,-0.810956
 H,0,1.857433,-2.240141,0.74457
 H,0,0.100487,-2.125925,0.688861
 H,0,-0.507508,2.484275,-0.748295
 O,0,-1.909093,-0.817812,-0.910356
 H,0,-2.757461,-1.128673,-0.556776
 H,0,1.069314,0.046031,1.407399
 C,0,2.522832,0.239922,-0.167271
 H,0,2.614149,1.324886,-0.115582
 H,0,3.325746,-0.208038,0.424931
 H,0,2.668605,-0.065931,-1.209332
 Recover connectivity data from disk.

 GradGradGradGradGradGradGradGradGradGradGradGradGradGradGradGradGradGrad
 Berny optimization.
 Initialization pass.
                           ----------------------------
                           !    Initial Parameters    !
                           ! (Angstroms and Degrees)  !
 --------------------------                            --------------------------
 ! Name  Definition              Value          Derivative Info.                !
 --------------------------------------------------------------------------------
 ! R1    R(1,2)                  1.0165         calculate D2E/DX2 analytically  !
 ! R2    R(1,3)                  1.4637         calculate D2E/DX2 analytically  !
 ! R3    R(1,12)                 1.0147         calculate D2E/DX2 analytically  !
 ! R4    R(3,4)                  1.0935         calculate D2E/DX2 analytically  !
 ! R5    R(3,5)                  1.5525         calculate D2E/DX2 analytically  !
 ! R6    R(3,6)                  1.529          calculate D2E/DX2 analytically  !
 ! R7    R(5,7)                  1.5351         calculate D2E/DX2 analytically  !
 ! R8    R(5,15)                 1.0977         calculate D2E/DX2 analytically  !
 ! R9    R(5,16)                 1.5337         calculate D2E/DX2 analytically  !
 ! R10   R(6,8)                  1.2073         calculate D2E/DX2 analytically  !
 ! R11   R(6,13)                 1.3553         calculate D2E/DX2 analytically  !
 ! R12   R(7,9)                  1.0948         calculate D2E/DX2 analytically  !
 ! R13   R(7,10)                 1.093          calculate D2E/DX2 analytically  !
 ! R14   R(7,11)                 1.093          calculate D2E/DX2 analytically  !
 ! R15   R(13,14)                0.9702         calculate D2E/DX2 analytically  !
 ! R16   R(16,17)                1.09           calculate D2E/DX2 analytically  !
 ! R17   R(16,18)                1.0936         calculate D2E/DX2 analytically  !
 ! R18   R(16,19)                1.0958         calculate D2E/DX2 analytically  !
 ! A1    A(2,1,3)              109.7677         calculate D2E/DX2 analytically  !
 ! A2    A(2,1,12)             107.1845         calculate D2E/DX2 analytically  !
 ! A3    A(3,1,12)             111.0324         calculate D2E/DX2 analytically  !
 ! A4    A(1,3,4)              108.3324         calculate D2E/DX2 analytically  !
 ! A5    A(1,3,5)              110.2647         calculate D2E/DX2 analytically  !
 ! A6    A(1,3,6)              111.2982         calculate D2E/DX2 analytically  !
 ! A7    A(4,3,5)              108.5595         calculate D2E/DX2 analytically  !
 ! A8    A(4,3,6)              108.0305         calculate D2E/DX2 analytically  !
 ! A9    A(5,3,6)              110.2662         calculate D2E/DX2 analytically  !
 ! A10   A(3,5,7)              112.5351         calculate D2E/DX2 analytically  !
 ! A11   A(3,5,15)             106.2754         calculate D2E/DX2 analytically  !
 ! A12   A(3,5,16)             110.2809         calculate D2E/DX2 analytically  !
 ! A13   A(7,5,15)             108.1355         calculate D2E/DX2 analytically  !
[...]
 .00043810,0.00014997,-0.05069547,0.00114481,0.02595912,0.05893089,0.00
 326153,-0.01225789,-0.03788425,-0.00048266,-0.00694498,-0.00113293,0.0
 0196236,-0.05357918,-0.03029659,-0.00249329,0.06693979,-0.00008681,-0.
 00317227,-0.00365886,-0.00004958,-0.00041778,0.00170984,0.03185092,-0.
 03549219,-0.29753699,-0.02980338,0.04049104,0.32275738,0.00252242,0.00
 428427,0.00082032,0.00036959,-0.00073395,0.00022147,-0.10982934,0.0263
 4874,-0.02910169,0.00059512,-0.00094254,-0.00076908,0.45105796,0.02509
 939,-0.02979011,0.02151757,0.00045266,0.00111688,-0.00000528,0.0094964
 0,-0.08118530,0.01125371,-0.00212359,0.00205105,-0.00075836,0.00847770
 ,0.47037736,0.00284256,-0.00241504,0.00305955,0.00221555,-0.00146324,0
 .00146162,-0.02373109,0.01872389,-0.09889376,-0.02487618,0.01600654,-0
 .01747985,-0.02091705,0.03620555,0.56664392,0.00104210,-0.00846593,-0.
 00146351,0.00063890,0.00024409,0.00059318,-0.14396887,-0.02365508,0.02
 428206,-0.00138378,0.00173014,-0.00140953,-0.03521575,0.00212452,0.000
 07700,0.59643802,-0.02976745,-0.03634713,0.00317422,-0.00139978,-0.000
 81741,0.00102566,-0.01517273,-0.08364680,0.01793315,0.00445251,0.00231
 932,-0.00300002,0.01086504,0.01403212,-0.01095911,0.07670032,0.3585000
 2,-0.00054195,-0.00183502,0.00066953,-0.00473330,-0.00521188,-0.000227
 14,0.00787817,0.01354526,-0.08765259,0.03195479,0.01126609,-0.01227185
 ,-0.01144366,-0.01000754,0.01009017,-0.23524078,0.15847109,0.78693042,
 -0.00366419,0.00399344,-0.00399628,-0.00003322,-0.00006437,-0.00006416
 ,0.00360628,0.02308953,0.00440809,0.00045940,-0.00044415,0.00023648,-0
 .07937580,-0.00717573,-0.00137015,0.00026389,0.00301070,-0.00140904,0.
 57192533,0.00146521,-0.00031131,0.00144008,0.00019000,-0.00009761,0.00
 011731,0.00217382,-0.01920778,0.00026608,-0.00102539,0.00117960,-0.000
 58959,-0.00927597,-0.17581222,-0.00995225,0.00201655,0.00215823,-0.000
 51692,-0.00526976,0.45890986,-0.00218765,0.00234328,-0.00176037,-0.000
 58876,0.00039519,-0.00001947,0.00295081,0.01505026,0.00150307,0.000255
 78,0.00078218,0.00029082,-0.00118098,-0.01142568,-0.08111681,0.0005052
 4,-0.00109883,0.00044499,-0.00134545,-0.01089860,0.56184771,-0.0010274
 5,-0.00130379,-0.00029221,-0.00003022,0.00070514,-0.00015176,-0.008975
 63,0.00589700,0.04125251,-0.00782922,-0.00386143,0.00245453,0.00320735
 ,-0.00212160,0.00228201,-0.24734970,0.03357332,0.25125439,-0.00056273,
 -0.00041004,0.00004856,0.22592394,-0.00225805,0.00388619,0.00236828,0.
 00134300,0.00158356,0.00114107,-0.00712943,0.01112280,0.00178678,-0.00
 197289,0.00045565,0.00119508,-0.00262068,-0.00172438,0.00209397,0.0412
 9267,-0.10811048,-0.10726493,-0.00068615,-0.00086772,0.00017491,-0.040
 67262,0.09084260,-0.00145860,-0.00193355,0.00209287,0.00061479,0.00209
 420,0.00022225,0.02181955,-0.00788738,-0.01657291,0.00232882,0.0011373
 3,0.00079462,-0.00155579,0.00357075,-0.00539078,0.26171783,-0.10136365
 ,-0.55307353,0.00083312,0.00037730,0.00007411,-0.29150432,0.15695297,0
 .65174508,-0.00013481,-0.00001791,-0.00011989,-0.00000923,-0.00001685,
 -0.00002209,0.00022750,0.00019690,0.00084317,0.00026352,0.00009182,-0.
 00006567,-0.00111154,-0.00015602,-0.00229079,0.00024972,0.00054021,0.0
 0169799,-0.04745543,0.00070349,0.00335006,-0.00001562,0.00013234,-0.00
 073606,0.04610985,-0.00014671,0.00008597,0.00047296,-0.00024754,0.0002
 7854,0.00004404,-0.00021354,0.00144408,-0.00155804,0.00022298,-0.00021
 463,0.00083328,0.00063911,-0.01045394,-0.03348212,-0.00000163,-0.00055
 444,-0.00038039,0.00075840,-0.06751233,-0.06827737,-0.00005407,0.00017
 509,0.00028134,-0.00082962,0.07512519,0.00000984,-0.00009504,0.0003656
 8,-0.00008035,0.00015982,-0.00008256,-0.00021852,0.00039293,0.00051205
 ,0.00045398,-0.00046046,0.00032957,0.00036326,-0.00129597,-0.00260107,
 -0.00044216,-0.00077800,-0.00121166,0.00389821,-0.06862776,-0.28321719
 ,0.00006697,0.00004874,0.00064508,-0.00374324,0.07710538,0.30804003,0.
 00025423,-0.00017083,-0.00017888,-0.00004041,-0.00005662,-0.00002256,0
 .00035012,-0.00075521,0.00064294,-0.00004583,-0.00000040,-0.00007327,0
 .00157253,-0.00183647,0.00207947,0.00027833,-0.00103376,-0.00034118,-0
 .20116525,0.08804737,-0.09475661,-0.00005177,0.00021867,0.00013738,0.0
 0087223,-0.00133834,0.00077002,0.21721207,0.00128817,-0.00156147,0.001
 40447,0.00004965,-0.00002080,0.00003712,-0.00270042,-0.00473709,-0.002
 39766,-0.00017553,0.00008756,0.00009145,0.02585155,-0.01590871,0.01697
 220,-0.00147148,-0.00105223,-0.00013869,0.08646199,-0.09414026,0.05293
 444,0.00043129,0.00028752,-0.00018858,-0.00796575,0.00377949,-0.003705
 86,-0.09499154,0.10577101,0.00001393,-0.00007611,0.00041803,-0.0000299
 7,0.00009382,0.00000514,0.00014791,-0.00063866,0.00049659,0.00021220,-
 0.00030363,0.00036064,0.00297308,-0.00177315,0.00069933,-0.00008226,-0
 .00008683,-0.00071711,-0.09434038,0.05370954,-0.10464456,-0.00009845,-
 0.00003572,0.00036217,-0.02439427,0.01388757,-0.01395081,0.10416046,-0
 .05821393,0.10947392,0.00026969,-0.00012297,0.00005379,-0.00008735,-0.
 00002146,0.00000480,0.00029582,0.00008739,-0.00030059,-0.00003857,0.00
 006519,-0.00003392,-0.00142745,0.00020123,-0.00041267,-0.00050050,-0.0
 0006971,0.00036443,-0.23304792,-0.07217708,0.09295922,-0.00005058,0.00
 053871,-0.00046883,0.00016652,0.00093796,-0.00041577,-0.02069049,-0.00
 789819,0.01094522,0.25443732,0.00039879,0.00026025,-0.00038345,-0.0001
 4896,-0.00012203,-0.00001391,-0.00099064,0.00102782,0.00019526,0.00004
 800,-0.00001384,-0.00006292,-0.02865311,-0.00844352,0.01455604,0.00058
 454,-0.00189905,0.00173045,-0.07094515,-0.07576091,0.03535014,0.000218
 74,0.00052530,-0.00079067,0.00851377,0.00244808,-0.00307995,0.01174379
 ,0.00458067,-0.00713201,0.07906832,0.08294584,-0.00032748,-0.00002374,
 0.00001524,0.00008184,0.00002184,0.00001368,0.00056036,0.00020060,-0.0
 0015813,0.00006103,0.00001032,0.00004636,-0.00395247,-0.00130672,0.000
 01840,0.00038315,0.00221981,0.00150559,0.09256355,0.03606868,-0.092948
 24,-0.00006605,-0.00036508,-0.00062472,0.02672039,0.01035990,-0.012193
 41,-0.01327649,-0.00601636,0.00676972,-0.10157891,-0.03931211,0.096111
 35,-0.16897654,0.14769177,-0.16948430,0.00344341,-0.00775236,0.0110080
 7,-0.00331965,-0.00968313,0.00353657,0.00016507,0.00040609,0.00025007,
 -0.00008293,0.00162913,0.00063545,0.00196631,-0.00222241,0.00033378,-0
 .00037535,-0.00003335,-0.00035380,-0.00073494,0.00046532,0.00012791,-0
 .00000125,0.00007163,0.00005633,0.00010870,0.00022334,0.00000483,0.000
 06090,0.00004594,0.00001310,0.16714773,0.11426699,-0.13871871,0.099684
 10,-0.00534918,0.00454636,-0.00511119,0.02272009,-0.01986598,0.0235693
 7,0.00026738,0.00141787,-0.00057166,-0.00247621,-0.00643644,-0.0026178
 4,0.00124122,-0.00092209,0.00032250,0.00186603,-0.00018943,0.00104827,
 -0.00038682,0.00065610,0.00027757,0.00002764,0.00001393,-0.00007486,-0
 .00003936,-0.00068125,-0.00007129,-0.00005717,0.00003394,0.00005188,-0
 .13163585,0.15952128,-0.13473285,0.10508213,-0.19311119,-0.02667388,0.
 02034877,-0.02207185,0.00613925,-0.00599827,0.00642531,0.00053321,-0.0
 0023490,0.00049943,-0.00030806,-0.00189098,-0.00010826,0.00021725,0.00
 047592,0.00060360,0.00043908,-0.00041313,0.00068512,0.00064306,-0.0004
 1169,-0.00019557,-0.00000712,0.00009978,-0.00004518,0.00003150,-0.0002
 8154,-0.00000135,0.00000361,0.00003186,-0.00002792,0.15403591,-0.11639
 113,0.20731744,-0.00640991,-0.00528309,0.00085941,0.00078294,0.0003946
 4,0.00020627,-0.01292273,-0.02259609,-0.02202522,-0.00050659,-0.001169
 95,-0.00123560,-0.00028685,-0.00188233,0.00141517,-0.14694359,-0.06777
 201,-0.03597134,-0.00094696,0.00025963,-0.00088748,0.03626315,0.005201
 86,0.00054054,-0.00013323,0.00006785,0.00001606,-0.00018496,0.00014472
 ,-0.00008677,-0.00058942,0.00015133,-0.00013502,-0.00006793,0.00008188
 ,-0.00043886,0.50293507,-0.00272059,-0.00166846,0.00086479,0.00074697,
 0.00079363,-0.00003414,-0.01473594,-0.00233850,-0.01600067,0.00003168,
 -0.00051329,-0.00000983,-0.00044837,-0.00469180,0.00224585,-0.05666869
 ,-0.12837281,-0.07029077,0.00009902,-0.00155472,0.00129028,0.00017895,
 0.00061184,-0.05583684,-0.00069643,0.00013721,0.00069625,0.00066377,0.
 00077424,0.00006485,0.00089065,0.00020511,-0.00151649,0.00029811,0.000
 22426,-0.00017727,0.20721218,0.20298929,-0.00146854,0.00075964,0.00160
 058,0.00156138,0.00159192,-0.00009311,0.00252029,-0.00242897,0.0042385
 8,-0.00121759,-0.00006277,0.00204513,0.00107491,-0.00022271,-0.0001604
 2,-0.01622840,-0.05787770,-0.15759724,0.00040212,0.00012574,-0.0006707
 7,-0.00891356,-0.06091161,-0.08145349,-0.00045343,0.00016000,0.0004983
 0,0.00001060,0.00009125,0.00023071,-0.00051584,-0.00023479,-0.00033014
 ,-0.00003903,-0.00001080,-0.00044196,-0.11407669,0.08672128,0.34244450
 ,-0.00132265,-0.00117873,-0.00037524,-0.00018216,-0.00018841,0.0001025
 1,0.00435971,-0.00247935,-0.00258397,0.00055608,0.00038982,0.00020292,
 -0.00008882,-0.00013866,0.00009589,-0.02780485,-0.01676371,0.00269834,
 -0.00025816,-0.00007131,0.00027360,0.00189212,0.00681021,0.00480468,-0
 .00003955,0.00002231,-0.00002499,0.00018927,0.00008872,-0.00003200,-0.
 00004860,0.00026969,-0.00034598,0.00003304,0.00008170,-0.00005951,-0.3
 6995019,-0.13364152,0.13713773,0.39261898,0.00061094,-0.00031238,0.000
 09403,-0.00020791,-0.00013918,-0.00004015,-0.00280472,0.00336508,-0.00
 516331,0.00039647,-0.00001868,-0.00009170,-0.00114953,-0.00093309,0.00
 053728,-0.03487017,-0.01105252,0.00891340,0.00031611,-0.00015235,-0.00
 017050,0.00686151,-0.00021607,0.00402378,-0.00001623,0.00010253,0.0000
 4268,0.00001195,-0.00001263,0.00008331,0.00009080,0.00009782,0.0001808
 3,0.00000138,-0.00020102,0.00007100,-0.11563752,-0.06837601,0.03198525
 ,0.14669152,0.07779938,-0.00104282,-0.00097502,0.00034280,-0.00000292,
 0.00000428,0.00011443,0.00090720,-0.00377627,-0.00233623,-0.00015871,0
 .00001037,0.00035158,0.00010888,0.00032978,0.00006805,-0.03430976,-0.0
 1212649,0.01841932,-0.00020517,-0.00011026,0.00003282,0.00405171,0.003
 90747,-0.00299320,0.00003879,0.00003444,-0.00002485,0.00006588,0.00003
 589,0.00000148,-0.00005272,0.00013827,-0.00009576,-0.00005497,0.000002
 26,-0.00005628,0.17243816,0.05264645,-0.11117884,-0.14185867,-0.040110
 98,0.09726138,0.00112562,-0.00152511,0.00113823,0.00004734,0.00057556,
 0.00027209,-0.00245238,-0.00401379,-0.02629551,-0.00319244,0.00240750,
 -0.00203314,-0.04879723,0.00563801,0.01850157,0.00226838,-0.00051439,-
 0.00300554,0.00002876,-0.00145895,-0.00288722,0.00006574,0.00018608,0.
 00148804,0.00058790,-0.00072988,-0.00009887,0.00003328,0.00013491,0.00
 044695,0.00020124,0.00016907,-0.00047780,0.00007154,-0.00036749,0.0001
 5507,-0.00021611,0.00000950,0.00034909,-0.00001941,-0.00003563,0.00002
 135,0.05818772,-0.00075240,0.00137296,0.00019255,0.00051581,-0.0001091
 5,-0.00017964,0.00123457,0.00198590,0.01637056,0.00234426,-0.00124487,
 0.00169239,0.00470620,-0.06228793,-0.05889739,-0.00082905,-0.00026097,
 -0.00044428,0.00140777,-0.01203200,-0.03295878,0.00008237,-0.00024083,
 0.00016669,-0.00041841,-0.00658444,-0.00038519,0.00051131,0.00121442,0
 .00033656,-0.00044513,0.00132645,0.00030091,-0.00026844,0.00018490,-0.
 00007207,0.00005279,0.00039912,0.00011784,-0.00001022,-0.00000622,-0.0
 0004900,-0.00570654,0.07317856,0.00071011,-0.00061051,0.00206432,-0.00
 073150,0.00119063,-0.00004066,-0.00226183,-0.00318208,-0.02017775,-0.0
 0245165,0.00152577,-0.00019687,0.01779332,-0.05883173,-0.27778123,0.00
 187592,0.00004766,-0.00251814,0.00001016,-0.00127349,-0.00156057,-0.00
 033008,0.00019873,0.00200322,-0.00002521,-0.00002016,0.00157321,0.0002
 4454,-0.00044298,0.00042589,-0.00034098,-0.00041321,0.00045637,0.00013
 047,-0.00004204,0.00047808,-0.00019623,0.00016843,0.00058163,0.0000016
 7,-0.00010833,0.00003797,-0.01882373,0.06287606,0.30355352,-0.00202377
 ,-0.00053384,0.00068324,-0.00060391,0.00002838,-0.00006972,-0.03407504
 ,-0.00251293,0.00448508,0.00148563,-0.00092625,0.00122532,-0.15397748,
 -0.02824994,0.03338905,-0.00023702,0.00382070,-0.00252613,-0.00566774,
 -0.00755439,0.00209456,-0.00043732,-0.00075100,0.00123228,0.00026310,0
 .00131412,0.00005464,0.00073935,0.00157694,-0.00021883,0.00074487,0.00
 134589,-0.00025126,0.00028759,-0.00055951,-0.00005849,-0.00059955,-0.0
 0076915,-0.00007494,-0.00001598,-0.00009814,-0.00002255,-0.00493216,-0
 .00142130,0.00210381,0.47882123,-0.00048765,-0.00060375,-0.00011737,0.
 00033434,0.00011182,-0.00008386,0.01414107,0.00638168,-0.00532368,-0.0
 0052536,0.00035410,-0.00023148,-0.02421969,-0.08575954,0.00941749,0.00
 026719,-0.00443252,0.00237640,-0.03383197,-0.01677307,0.01333141,0.000
 93100,0.00092205,-0.00105644,0.00003173,0.00153282,0.00042575,-0.00101
 057,0.00152750,-0.00009936,-0.00151314,-0.00684337,-0.00051839,0.00032
 962,0.00019127,-0.00016804,0.00085266,0.00155562,0.00013104,0.00008251
 ,0.00013664,0.00001798,0.00682076,0.00236704,-0.00204975,-0.02992817,0
 .57197500,0.00057312,-0.00015862,0.00140822,-0.00039392,0.00005630,-0.
 00018806,-0.01797591,-0.00482088,0.00444988,-0.00110271,-0.00043824,0.
 00101174,0.03435454,0.01038091,-0.09141530,-0.00022199,0.00472451,-0.0
 0435672,-0.00129215,0.00086675,0.00092661,-0.00059943,-0.00097808,0.00
 243776,-0.00114672,-0.00087131,0.00066171,0.00040506,0.00039659,-0.000
 02110,-0.00053717,-0.00112291,0.00041262,-0.00013377,-0.00000511,0.000
 13608,-0.00072066,-0.00123319,0.00011540,0.00000443,-0.00033153,0.0000
 8487,0.02990074,0.01029808,-0.01068391,0.03529067,0.00812888,0.5451117
 7,-0.00032841,0.00058384,0.00041891,-0.00038225,0.00002746,0.00011269,
 0.00043763,-0.00147535,-0.00045797,-0.00006550,0.00012354,-0.00008947,
 -0.00160927,-0.02990272,-0.00320805,-0.00028541,-0.00047086,0.00007224
 ,-0.00579950,-0.00053358,0.00236767,0.00029626,0.00029168,-0.00020436,
 -0.00001150,0.00021788,-0.00009422,0.00016665,0.00006733,0.00023080,-0
 .00020143,-0.00205637,0.00000573,0.00041903,0.00028221,-0.00002380,0.0
 0033745,0.00036519,0.00014770,0.00007126,-0.00006832,0.00005124,0.0010
 5708,0.00050806,0.00008169,-0.04758290,-0.01826481,-0.00094019,0.05182
 653,0.00261465,-0.00016177,-0.00003456,0.00015884,-0.00002262,-0.00004
 483,0.00035647,-0.00102499,0.00033786,-0.00005155,-0.00002723,-0.00002
 145,-0.00138545,-0.00839943,-0.00090160,-0.00003404,-0.00022997,-0.000
 27531,-0.00218965,0.00036680,0.00159158,-0.00000828,0.00012889,0.00004
 618,0.00011471,0.00020053,-0.00002038,0.00010646,0.00028800,-0.0001081
 7,-0.00000043,-0.00059016,-0.00017295,0.00011354,0.00011072,0.00000580
 ,-0.00007492,0.00004855,0.00004427,0.00003644,-0.00004675,0.00001498,-
 0.00016505,0.00046256,0.00026477,-0.02234437,-0.31309572,-0.01451518,0
 .02362459,0.33987960,0.00010703,0.00014581,-0.00065993,0.00050280,0.00
 008944,-0.00000516,-0.00037459,-0.00054876,0.00037194,0.00000545,-0.00
 012936,-0.00003861,-0.00011826,0.01188166,-0.00021717,-0.00010386,0.00
 008670,0.00004262,0.00200923,0.00036986,-0.00047059,0.00003524,-0.0000
 1297,-0.00007666,0.00021548,0.00039466,0.00030091,0.00016888,-0.000406
 98,-0.00000953,0.00030797,0.00067392,0.00057288,-0.00030908,-0.0001095
 7,0.00002974,0.00001873,-0.00002701,-0.00000800,-0.00000919,0.00000372
 ,-0.00000634,-0.00057907,0.00017142,0.00016812,-0.00128255,-0.01446051
 ,-0.04944286,-0.00071617,0.01503558,0.04959900,0.00055962,-0.00007632,
 -0.00001203,-0.00007715,0.00001203,-0.00007422,-0.00514253,-0.00292717
 ,0.00286351,0.00029881,-0.00024400,0.00015884,-0.02201262,0.01197086,-
 0.01651606,0.00053024,0.00237893,-0.00151886,0.00080054,0.00143627,-0.
 00071591,-0.00062718,-0.00046681,0.00084432,0.00001732,-0.00003895,0.0
 0008790,0.00040939,-0.00096413,0.00029767,0.00043065,-0.00000967,0.000
 35486,-0.00004885,-0.00001932,0.00007444,-0.00055031,-0.00073342,-0.00
 005519,-0.00000107,-0.00009631,0.00002675,0.00105460,0.00048836,0.0002
 9628,-0.18191674,0.07736118,-0.10322019,0.00222398,-0.00065509,0.00255
 059,0.20088528,0.00144406,0.00030226,-0.00001960,0.00010342,0.00004640
 ,0.00002713,-0.00241412,-0.00150539,0.00039085,0.00004095,-0.00013483,
 0.00016879,-0.00812667,0.00252137,-0.00614383,-0.00037004,0.00062532,-
 0.00042481,-0.00069770,0.00078874,-0.00067570,0.00000590,-0.00001988,0
 .00018467,-0.00005813,-0.00003808,0.00001034,-0.00012726,-0.00015622,0
 .00026157,0.00022163,0.00014066,-0.00002421,0.00002752,0.00003583,0.00
 001704,-0.00000982,-0.00015796,0.00003236,0.00000535,-0.00006198,0.000
 01074,0.00066935,0.00024432,-0.00018273,0.07879847,-0.09128978,0.05939
 212,0.02340201,-0.01092387,0.01855797,-0.08493711,0.09607742,-0.000250
 28,0.00005134,0.00012631,-0.00001982,-0.00001139,0.00000722,0.00273083
 ,0.00079236,-0.00034304,0.00028359,0.00001535,0.00038173,0.00961447,-0
 .00474558,0.00562343,0.00004826,-0.00056175,0.00085496,-0.00010383,-0.
 00034614,0.00005142,-0.00005370,0.00003699,-0.00021855,-0.00007022,0.0
 0011484,-0.00003806,-0.00009002,-0.00017715,0.00025611,0.00008461,-0.0
 0027511,0.00002759,0.00007922,0.00001761,-0.00004649,0.00010692,0.0001
 8132,0.00000529,-0.00001724,0.00007099,-0.00000812,-0.00045118,-0.0005
 0606,0.00081797,-0.10457342,0.05903383,-0.12520333,0.00260033,-0.00087
 209,0.00068764,0.11245996,-0.06632642,0.13350015,-0.00002880,0.0001805
 8,-0.00047441,0.00010568,-0.00017311,0.00000148,0.00187053,-0.00004007
 ,0.00199081,-0.00023690,0.00012669,-0.00072964,-0.00550991,0.00849717,
 0.02978832,0.00001358,-0.00015492,0.00047764,0.00126805,0.00151749,0.0
 0009839,0.00004382,0.00007707,-0.00056132,0.00015449,-0.00065196,-0.00
 065910,-0.00000747,-0.00015158,-0.00015011,0.00007530,0.00024602,-0.00
 033255,-0.00009586,0.00005577,0.00003017,-0.00001028,-0.00008191,-0.00
 016062,0.00001100,0.00000380,-0.00000166,-0.00511949,-0.00200003,0.001
 91323,-0.05027212,0.00862930,0.02775626,-0.00056971,-0.00021687,-0.002
 42865,0.00316600,-0.00797780,-0.02237848,0.05514209,0.00042648,-0.0002
 9527,0.00075741,-0.00030139,-0.00007555,0.00002243,0.00037756,0.000066
 44,-0.00058073,0.00027893,0.00014451,-0.00005279,-0.00114043,0.0017276
 2,0.01007360,0.00016487,0.00006342,0.00016534,0.00030164,0.00100848,0.
 00121349,-0.00006660,-0.00001824,-0.00005568,-0.00017725,0.00003439,-0
 .00035841,0.00005704,-0.00003975,0.00010163,0.00020339,0.00008094,-0.0
 0015872,0.00029213,0.00007845,-0.00009328,0.00000619,-0.00006532,-0.00
 001125,-0.00000637,0.00002744,-0.00000488,-0.00209391,0.00003017,0.000
 88500,0.00876448,-0.06825781,-0.06976910,0.00327822,-0.00696315,-0.031
 71557,-0.00247934,0.00350567,0.01350709,-0.00788563,0.06894755,0.00024
 756,-0.00014078,0.00016541,-0.00020104,0.00011063,-0.00001396,-0.00075
 149,0.00015213,0.00040972,0.00068600,-0.00030187,0.00060417,0.00202277
 ,-0.00287622,-0.01249982,-0.00019764,-0.00030636,0.00006478,-0.0006734
 3,-0.00061320,0.00055190,-0.00007941,0.00007509,0.00022224,0.00020883,
 0.00080121,0.00043827,0.00002223,0.00000630,-0.00015527,-0.00006624,0.
 00014511,0.00042854,0.00016324,0.00003195,-0.00006873,0.00017260,0.000
 24672,0.00017386,-0.00001497,0.00001021,-0.00001507,0.00237894,0.00096
 933,0.00079883,0.02851924,-0.06875389,-0.27544538,-0.00035477,-0.00037
 450,-0.00083798,0.00209734,-0.00525630,-0.01648223,-0.03417976,0.07607
 443,0.30166072||-0.00000539,0.00005140,0.00000289,0.00001461,-0.000012
 57,-0.00002285,-0.00004891,-0.00006226,0.00003170,0.00000266,0.0000060
 0,-0.00000100,0.00000273,0.00000948,-0.00000405,0.00005070,0.00002126,
 -0.00004565,0.00000059,-0.00001476,0.00000523,-0.00001944,0.00000048,0
 .00001411,-0.00000510,-0.00000201,0.00000683,-0.00000300,0.00000517,0.
 00000286,-0.00000126,0.00000642,0.00000466,0.00001507,-0.00001474,-0.0
 0000189,-0.00000929,0.00000248,0.00002669,0.00000511,0.00000752,0.0000
 1240,0.,0.00000540,-0.00000533,0.00001367,0.00000462,-0.00000829,-0.00
 000256,-0.00000393,-0.00000985,-0.00000646,-0.00000263,-0.00000578,-0.
 00000373,-0.00000732,-0.00000268|||@


 ACCORDING TO HEN3RY, LIFE IS MUCH LIKE A SEWER........
 YOU GET OUT OF IT JUST WHAT YOU PUT INTO IT...........
                         TOM LEHRER - (THE 3 IS SILENT)
 Job cpu time:  0 days  0 hours 50 minutes 25.0 seconds.
 File lengths (MBytes):  RWF=    108 Int=      0 D2E=      0 Chk=      8 Scr=      1
 Normal termination of Gaussian 03 at Tue Mar 29 17:50:31 2016.
