 Entering Gaussian System, Link 0=g09
 Input=Val-S-opt-6-311++g(d,p).com
 Output=Val-S-opt-6-311++g(d,p).log
 Initial command:
 /usr/local/gau/g09/l1.exe "/tmp/Gau-3275.inp" -scrdir="/tmp/"
 Entering Link 1 = /usr/local/gau/g09/l1.exe PID=      3277.
  
 Copyright (c) 1988,1990,1992,1993,1995,1998,2003,2009,2013,
            Gaussian, Inc.  All Rights Reserved.
  
 This is part of the Gaussian(R) 09 program.  It is based on
 the Gaussian(R) 03 system (copyright 2003, Gaussian, Inc.),
 the Gaussian(R) 98 system (copyright 1998, Gaussian, Inc.),
 the Gaussian(R) 94 system (copyright 1995, Gaussian, Inc.),
 the Gaussian 92(TM) system (copyright 1992, Gaussian, Inc.),
 the Gaussian 90(TM) system (copyright 1990, Gaussian, Inc.),
 the Gaussian 88(TM) system (copyright 1988, Gaussian, Inc.),
 the Gaussian 86(TM) system (copyright 1986, Carnegie Mellon
 University), and the Gaussian 82(TM) system (copyright 1983,
 Carnegie Mellon University). Gaussian is a federally registered
 trademark of Gaussian, Inc.
  
 This software contains proprietary and confidential information,
 including trade secrets, belonging to Gaussian, Inc.
  
 This software is provided under written license and may be
 used, copied, transmitted, or stored only in accord with that
 written license.
  
 The following legend is applicable only to US Government
 contracts under FAR:
  
                    RESTRICTED RIGHTS LEGEND
  
 Use, reproduction and disclosure by the US Government is
 subject to restrictions as set forth in subparagraphs (a)
 and (c) of the Commercial Computer Software - Restricted
 Rights clause in FAR 52.227-19.
  
 Gaussian, Inc.
 340 Quinnipiac St., Bldg. 40, Wallingford CT 06492
  
  
 ---------------------------------------------------------------
 Warning -- This program may not be used in any manner that
 competes with the business of Gaussian, Inc. or will provide
 assistance to any competitor of Gaussian, Inc.  The licensee
 of this program is prohibited from giving any competitor of
 Gaussian, Inc. access to this program.  By using this program,
 the user acknowledges that Gaussian, Inc. is engaged in the
 business of creating and licensing software in the field of
 computational chemistry and represents and warrants to the
 licensee that it is not a competitor of Gaussian, Inc. and that
 it will not use this program in any manner prohibited above.
 ---------------------------------------------------------------
  

 Cite this work as:
 Gaussian 09, Revision D.01,
 M. J. Frisch, G. W. Trucks, H. B. Schlegel, G. E. Scuseria, 
 M. A. Robb, J. R. Cheeseman, G. Scalmani, V. Barone, B. Mennucci, 
 G. A. Petersson, H. Nakatsuji, M. Caricato, X. Li, H. P. Hratchian, 
 A. F. Izmaylov, J. Bloino, G. Zheng, J. L. Sonnenberg, M. Hada, 
 M. Ehara, K. Toyota, R. Fukuda, J. Hasegawa, M. Ishida, T. Nakajima, 
 Y. Honda, O. Kitao, H. Nakai, T. Vreven, J. A. Montgomery, Jr., 
 J. E. Peralta, F. Ogliaro, M. Bearpark, J. J. Heyd, E. Brothers, 
 K. N. Kudin, V. N. Staroverov, T. Keith, R. Kobayashi, J. Normand, 
 K. Raghavachari, A. Rendell, J. C. Burant, S. S. Iyengar, J. Tomasi, 
 M. Cossi, N. Rega, J. M. Millam, M. Klene, J. E. Knox, J. B. Cross, 
 V. Bakken, C. Adamo, J. Jaramillo, R. Gomperts, R. E. Stratmann, 
 O. Yazyev, A. J. Austin, R. Cammi, C. Pomelli, J. W. Ochterski, 
 R. L. Martin, K. Morokuma, V. G. Zakrzewski, G. A. Voth, 
 P. Salvador, J. J. Dannenberg, S. Dapprich, A. D. Daniels, 
 O. Farkas, J. B. Foresman, J. V. Ortiz, J. Cioslowski, 
 and D. J. Fox, Gaussian, Inc., Wallingford CT, 2013.
 
 ******************************************
 Gaussian 09:  ES64L-G09RevD.01 24-Apr-2013
                28-Mar-2016 
 ******************************************
 %chk=Val-S-opt-6-311gdp.chk
 -------------------------------------------
 # opt b3lyp/6-311++g(d,p) geom=connectivity
 -------------------------------------------
 1/14=-1,18=20,19=15,26=3,38=1,57=2/1,3;
 2/9=110,12=2,17=6,18=5,40=1/2;
 3/5=4,6=6,7=1111,11=2,16=1,25=1,30=1,71=1,74=-5/1,2,3;
 4//1;
 5/5=2,38=5/2;
 6/7=2,8=2,9=2,10=2,28=1/1;
 7//1,2,3,16;
 1/14=-1,18=20,19=15,26=3/3(2);
 2/9=110/2;
 99//99;
 2/9=110/2;
 3/5=4,6=6,7=1111,11=2,16=1,25=1,30=1,71=1,74=-5/1,2,3;
 4/5=5,16=3,69=1/1;
 5/5=2,38=5/2;
 7//1,2,3,16;
 1/14=-1,18=20,19=15,26=3/3(-5);
 2/9=110/2;
 6/7=2,8=2,9=2,10=2,19=2,28=1/1;
 99/9=1/99;
 -----------------------
 Val-S-opt-6-311++g(d,p)
 -----------------------
 Symbolic Z-matrix:
 Charge =  0 Multiplicity = 1
 N                    -0.11602   1.96175   0.16871 
 H                     0.13281   2.23077  -0.77839 
 C                    -0.01881   0.52148   0.40281 
 H                    -0.13747   0.3294    1.47359 
 C                    -1.1541   -0.23066  -0.36319 
 C                     1.34618  -0.00735  -0.02128 
 C                    -1.01456  -1.76228  -0.26914 
 O                     1.94855   0.32292  -1.0486 
 H                    -1.02512  -2.09333   0.77671 
 H                    -1.85141  -2.24708  -0.78422 
 H                    -0.08809  -2.12634  -0.72609 
 H                     0.34968   2.53774   0.86051 
 O                     1.87245  -0.91571   0.87399 
 H                     2.7419   -1.24646   0.55486 
 H                    -1.05715   0.06226  -1.42052 
 C                    -2.52708   0.23372   0.15189 
 H                    -2.59513   1.3239    0.13033 
 H                    -3.33055  -0.18828  -0.46324 
 H                    -2.68523  -0.10188   1.18582 
 

 GradGradGradGradGradGradGradGradGradGradGradGradGradGradGradGradGradGrad
 Berny optimization.
 Initialization pass.
                           ----------------------------
                           !    Initial Parameters    !
                           ! (Angstroms and Degrees)  !
 --------------------------                            --------------------------
 ! Name  Definition              Value          Derivative Info.                !
 --------------------------------------------------------------------------------
 ! R1    R(1,2)                  1.0155         estimate D2E/DX2                !
 ! R2    R(1,3)                  1.4624         estimate D2E/DX2                !
 ! R3    R(1,12)                 1.0135         estimate D2E/DX2                !
 ! R4    R(3,4)                  1.0943         estimate D2E/DX2                !
 ! R5    R(3,5)                  1.5625         estimate D2E/DX2                !
 ! R6    R(3,6)                  1.524          estimate D2E/DX2                !
 ! R7    R(5,7)                  1.5408         estimate D2E/DX2                !
 ! R8    R(5,15)                 1.1014         estimate D2E/DX2                !
 ! R9    R(5,16)                 1.5382         estimate D2E/DX2                !
 ! R10   R(6,8)                  1.2358         estimate D2E/DX2                !
 ! R11   R(6,13)                 1.3797         estimate D2E/DX2                !
 ! R12   R(7,9)                  1.097          estimate D2E/DX2                !
 ! R13   R(7,10)                 1.0957         estimate D2E/DX2                !
 ! R14   R(7,11)                 1.0953         estimate D2E/DX2                !
 ! R15   R(13,14)                0.9835         estimate D2E/DX2                !
 ! R16   R(16,17)                1.0925         estimate D2E/DX2                !
 ! R17   R(16,18)                1.0964         estimate D2E/DX2                !
 ! R18   R(16,19)                1.0985         estimate D2E/DX2                !
 ! A1    A(2,1,3)              113.1977         estimate D2E/DX2                !
 ! A2    A(2,1,12)             111.9283         estimate D2E/DX2                !
 ! A3    A(3,1,12)             114.8281         estimate D2E/DX2                !
 ! A4    A(1,3,4)              108.8014         estimate D2E/DX2                !
 ! A5    A(1,3,5)              110.3233         estimate D2E/DX2                !
 ! A6    A(1,3,6)              110.8995         estimate D2E/DX2                !
 ! A7    A(4,3,5)              108.446          estimate D2E/DX2                !
 ! A8    A(4,3,6)              107.9685         estimate D2E/DX2                !
 ! A9    A(5,3,6)              110.3232         estimate D2E/DX2                !
 ! A10   A(3,5,7)              112.5058         estimate D2E/DX2                !
 ! A11   A(3,5,15)             106.1789         estimate D2E/DX2                !
 ! A12   A(3,5,16)             109.82           estimate D2E/DX2                !
 ! A13   A(7,5,15)             108.3594         estimate D2E/DX2                !
 ! A14   A(7,5,16)             111.13           estimate D2E/DX2                !
 ! A15   A(15,5,16)            108.6467         estimate D2E/DX2                !
 ! A16   A(3,6,8)              125.1089         estimate D2E/DX2                !
 ! A17   A(3,6,13)             112.9245         estimate D2E/DX2                !
 ! A18   A(8,6,13)             121.9663         estimate D2E/DX2                !
 ! A19   A(5,7,9)              110.9329         estimate D2E/DX2                !
 ! A20   A(5,7,10)             109.995          estimate D2E/DX2                !
 ! A21   A(5,7,11)             112.4283         estimate D2E/DX2                !
 ! A22   A(9,7,10)             107.8953         estimate D2E/DX2                !
 ! A23   A(9,7,11)             107.7921         estimate D2E/DX2                !
 ! A24   A(10,7,11)            107.6279         estimate D2E/DX2                !
 ! A25   A(6,13,14)            110.3702         estimate D2E/DX2                !
 ! A26   A(5,16,17)            110.5019         estimate D2E/DX2                !
 ! A27   A(5,16,18)            110.4911         estimate D2E/DX2                !
 ! A28   A(5,16,19)            110.5766         estimate D2E/DX2                !
 ! A29   A(17,16,18)           109.1088         estimate D2E/DX2                !
 ! A30   A(17,16,19)           108.3283         estimate D2E/DX2                !
 ! A31   A(18,16,19)           107.7576         estimate D2E/DX2                !
 ! D1    D(2,1,3,4)            170.7019         estimate D2E/DX2                !
 ! D2    D(2,1,3,5)            -70.4473         estimate D2E/DX2                !
 ! D3    D(2,1,3,6)             52.0924         estimate D2E/DX2                !
 ! D4    D(12,1,3,4)            40.4652         estimate D2E/DX2                !
 ! D5    D(12,1,3,5)           159.3159         estimate D2E/DX2                !
 ! D6    D(12,1,3,6)           -78.1443         estimate D2E/DX2                !
 ! D7    D(1,3,5,7)            174.1506         estimate D2E/DX2                !
 ! D8    D(1,3,5,15)            55.7775         estimate D2E/DX2                !
 ! D9    D(1,3,5,16)           -61.5093         estimate D2E/DX2                !
 ! D10   D(4,3,5,7)            -66.7822         estimate D2E/DX2                !
 ! D11   D(4,3,5,15)           174.8447         estimate D2E/DX2                !
 ! D12   D(4,3,5,16)            57.5579         estimate D2E/DX2                !
 ! D13   D(6,3,5,7)             51.2734         estimate D2E/DX2                !
 ! D14   D(6,3,5,15)           -67.0997         estimate D2E/DX2                !
 ! D15   D(6,3,5,16)           175.6134         estimate D2E/DX2                !
 ! D16   D(1,3,6,8)            -41.8783         estimate D2E/DX2                !
 ! D17   D(1,3,6,13)           137.9267         estimate D2E/DX2                !
 ! D18   D(4,3,6,8)           -160.9901         estimate D2E/DX2                !
 ! D19   D(4,3,6,13)            18.8149         estimate D2E/DX2                !
 ! D20   D(5,3,6,8)             80.6615         estimate D2E/DX2                !
 ! D21   D(5,3,6,13)           -99.5336         estimate D2E/DX2                !
 ! D22   D(3,5,7,9)             58.4206         estimate D2E/DX2                !
 ! D23   D(3,5,7,10)           177.7141         estimate D2E/DX2                !
 ! D24   D(3,5,7,11)           -62.3642         estimate D2E/DX2                !
 ! D25   D(15,5,7,9)           175.5039         estimate D2E/DX2                !
 ! D26   D(15,5,7,10)          -65.2026         estimate D2E/DX2                !
 ! D27   D(15,5,7,11)           54.7192         estimate D2E/DX2                !
 ! D28   D(16,5,7,9)           -65.1937         estimate D2E/DX2                !
 ! D29   D(16,5,7,10)           54.0998         estimate D2E/DX2                !
 ! D30   D(16,5,7,11)          174.0215         estimate D2E/DX2                !
 ! D31   D(3,5,16,17)           51.8621         estimate D2E/DX2                !
 ! D32   D(3,5,16,18)          172.7157         estimate D2E/DX2                !
 ! D33   D(3,5,16,19)          -68.0704         estimate D2E/DX2                !
 ! D34   D(7,5,16,17)          176.9965         estimate D2E/DX2                !
 ! D35   D(7,5,16,18)          -62.1499         estimate D2E/DX2                !
 ! D36   D(7,5,16,19)           57.064          estimate D2E/DX2                !
 ! D37   D(15,5,16,17)         -63.873          estimate D2E/DX2                !
 ! D38   D(15,5,16,18)          56.9806         estimate D2E/DX2                !
 ! D39   D(15,5,16,19)         176.1945         estimate D2E/DX2                !
 ! D40   D(3,6,13,14)          178.7703         estimate D2E/DX2                !
 ! D41   D(8,6,13,14)           -1.4178         estimate D2E/DX2                !
 --------------------------------------------------------------------------------
 Trust Radius=3.00D-01 FncErr=1.00D-07 GrdErr=1.00D-06
 Number of steps in this run=    100 maximum allowed number of steps=    114.
 GradGradGradGradGradGradGradGradGradGradGradGradGradGradGradGradGradGrad

                          Input orientation:                          
 ---------------------------------------------------------------------
 Center     Atomic      Atomic             Coordinates (Angstroms)
 Number     Number       Type             X           Y           Z
 ---------------------------------------------------------------------
      1          7           0       -0.116015    1.961747    0.168713
      2          1           0        0.132813    2.230773   -0.778391
      3          6           0       -0.018806    0.521480    0.402807
      4          1           0       -0.137474    0.329401    1.473585
      5          6           0       -1.154096   -0.230662   -0.363188
      6          6           0        1.346182   -0.007347   -0.021278
      7          6           0       -1.014562   -1.762284   -0.269140
      8          8           0        1.948552    0.322915   -1.048597
      9          1           0       -1.025121   -2.093330    0.776707
     10          1           0       -1.851405   -2.247079   -0.784221
     11          1           0       -0.088088   -2.126343   -0.726093
     12          1           0        0.349681    2.537735    0.860513
     13          8           0        1.872450   -0.915707    0.873987
     14          1           0        2.741902   -1.246464    0.554860
     15          1           0       -1.057145    0.062260   -1.420522
     16          6           0       -2.527080    0.233715    0.151889
     17          1           0       -2.595125    1.323899    0.130333
     18          1           0       -3.330548   -0.188275   -0.463235
     19          1           0       -2.685231   -0.101881    1.185820
 ---------------------------------------------------------------------
                    Distance matrix (angstroms):
                    1          2          3          4          5
     1  N    0.000000
     2  H    1.015528   0.000000
     3  C    1.462402   2.083243   0.000000
     4  H    2.089905   2.959673   1.094323   0.000000
     5  C    2.483382   2.808414   1.562482   2.172769   0.000000
     6  C    2.459969   2.656062   1.524040   2.132897   2.533409
     7  C    3.855841   4.185727   2.580430   2.860336   1.540838
     8  O    2.903455   2.647611   2.452855   3.273064   3.225315
     9  H    4.199974   4.738883   2.826606   2.672673   2.187585
    10  H    4.651223   4.897787   3.525957   3.830600   2.174729
    11  H    4.184966   4.363026   2.879268   3.297226   2.204922
    12  H    1.013520   1.681447   2.100134   2.343057   3.379765
    13  O    3.568073   3.956896   2.421645   2.439181   3.340639
    14  H    4.313863   4.547096   3.281807   3.408550   4.129584
    15  H    2.649423   2.555539   2.147920   3.048445   1.101435
    16  C    2.966414   3.453794   2.537165   2.732445   1.538192
    17  H    2.560139   3.014937   2.712109   2.972104   2.176416
    18  H    3.918568   4.236270   3.495914   3.770276   2.179163
    19  H    3.448759   4.152201   2.848071   2.599977   2.181831
                    6          7          8          9         10
     6  C    0.000000
     7  C    2.952008   0.000000
     8  O    1.235843   3.706164   0.000000
     9  H    3.257481   1.097041   4.244138   0.000000
    10  H    3.977819   1.095738   4.595045   1.772817   0.000000
    11  H    2.654061   1.095308   3.201683   1.771307   1.768401
    12  H    2.871935   4.650531   3.332644   4.831549   5.517642
    13  O    1.379701   3.218427   2.288297   3.129245   4.288275
    14  H    1.953300   3.880215   2.379796   3.867410   4.888030
    15  H    2.781854   2.157882   3.039816   3.078215   2.523643
    16  C    3.884618   2.539486   4.634696   2.839263   2.736271
    17  H    4.162824   3.490313   4.799671   3.815779   3.760507
    18  H    4.701049   2.806950   5.335997   3.237543   2.555302
    19  H    4.209313   2.768570   5.161881   2.624730   3.029555
                   11         12         13         14         15
    11  H    0.000000
    12  H    4.945966   0.000000
    13  O    2.805282   3.774290   0.000000
    14  H    3.228602   4.487350   0.983458   0.000000
    15  H    2.492245   3.648322   3.847560   4.477460   0.000000
    16  C    3.505625   3.753187   4.604179   5.487758   2.159301
    17  H    4.350043   3.267789   5.052532   5.938926   2.522353
    18  H    3.786654   4.767339   5.421117   6.247474   2.479421
    19  H    3.807756   4.035355   4.640260   5.582289   3.077438
                   16         17         18         19
    16  C    0.000000
    17  H    1.092518   0.000000
    18  H    1.096364   1.783211   0.000000
    19  H    1.098476   1.776238   1.772930   0.000000
 Stoichiometry    C5H11NO2
 Framework group  C1[X(C5H11NO2)]
 Deg. of freedom    51
 Full point group                 C1      NOp   1
 Largest Abelian subgroup         C1      NOp   1
 Largest concise Abelian subgroup C1      NOp   1
                         Standard orientation:                         
 ---------------------------------------------------------------------
 Center     Atomic      Atomic             Coordinates (Angstroms)
 Number     Number       Type             X           Y           Z
 ---------------------------------------------------------------------
      1          7           0        0.116015    1.961747   -0.168713
      2          1           0       -0.132813    2.230773    0.778391
      3          6           0        0.018806    0.521480   -0.402807
      4          1           0        0.137474    0.329401   -1.473585
      5          6           0        1.154096   -0.230662    0.363188
      6          6           0       -1.346182   -0.007347    0.021278
      7          6           0        1.014562   -1.762284    0.269140
      8          8           0       -1.948552    0.322915    1.048597
      9          1           0        1.025121   -2.093330   -0.776707
     10          1           0        1.851405   -2.247079    0.784221
     11          1           0        0.088088   -2.126343    0.726093
     12          1           0       -0.349681    2.537735   -0.860513
     13          8           0       -1.872450   -0.915707   -0.873987
     14          1           0       -2.741902   -1.246464   -0.554860
     15          1           0        1.057145    0.062260    1.420522
     16          6           0        2.527080    0.233715   -0.151889
     17          1           0        2.595125    1.323899   -0.130333
     18          1           0        3.330548   -0.188275    0.463235
     19          1           0        2.685231   -0.101881   -1.185820
 ---------------------------------------------------------------------
 Rotational constants (GHZ):      2.7468989      1.5515163      1.1991148
 Standard basis: 6-311++G(d,p) (5D, 7F)
 There are   261 symmetry adapted cartesian basis functions of A   symmetry.
 There are   253 symmetry adapted basis functions of A   symmetry.
   253 basis functions,   387 primitive gaussians,   261 cartesian basis functions
    32 alpha electrons       32 beta electrons
       nuclear repulsion energy       402.8745129094 Hartrees.
 NAtoms=   19 NActive=   19 NUniq=   19 SFac= 1.00D+00 NAtFMM=   60 NAOKFM=F Big=F
 Integral buffers will be    131072 words long.
 Raffenetti 2 integral format.
 Two-electron integral symmetry is turned on.
 One-electron integrals computed using PRISM.
 NBasis=   253 RedAO= T EigKep=  9.35D-06  NBF=   253
 NBsUse=   253 1.00D-06 EigRej= -1.00D+00 NBFU=   253
 ExpMin= 3.60D-02 ExpMax= 8.59D+03 ExpMxC= 1.30D+03 IAcc=3 IRadAn=         5 AccDes= 0.00D+00
 Harris functional with IExCor=  402 and IRadAn=       5 diagonalized for initial guess.
 HarFok:  IExCor=  402 AccDes= 0.00D+00 IRadAn=         5 IDoV= 1 UseB2=F ITyADJ=14
 ICtDFT=  3500011 ScaDFX=  1.000000  1.000000  1.000000  1.000000
 FoFCou: FMM=F IPFlag=           0 FMFlag=      100000 FMFlg1=           0
         NFxFlg=           0 DoJE=T BraDBF=F KetDBF=T FulRan=T
         wScrn=  0.000000 ICntrl=     500 IOpCl=  0 I1Cent=   200000004 NGrid=           0
         NMat0=    1 NMatS0=      1 NMatT0=    0 NMatD0=    1 NMtDS0=    0 NMtDT0=    0
 Petite list used in FoFCou.
 Requested convergence on RMS density matrix=1.00D-08 within 128 cycles.
 Requested convergence on MAX density matrix=1.00D-06.
 Requested convergence on             energy=1.00D-06.
 No special actions if energy rises.
 SCF Done:  E(RB3LYP) =  -402.499392995     A.U. after   13 cycles
            NFock= 13  Conv=0.76D-08     -V/T= 2.0047

 **********************************************************************

            Population analysis using the SCF density.

 **********************************************************************

 Orbital symmetries:
       Occupied  (A) (A) (A) (A) (A) (A) (A) (A) (A) (A) (A) (A)
                 (A) (A) (A) (A) (A) (A) (A) (A) (A) (A) (A) (A)
                 (A) (A) (A) (A) (A) (A) (A) (A)
       Virtual   (A) (A) (A) (A) (A) (A) (A) (A) (A) (A) (A) (A)
                 (A) (A) (A) (A) (A) (A) (A) (A) (A) (A) (A) (A)
                 (A) (A) (A) (A) (A) (A) (A) (A) (A) (A) (A) (A)
                 (A) (A) (A) (A) (A) (A) (A) (A) (A) (A) (A) (A)
                 (A) (A) (A) (A) (A) (A) (A) (A) (A) (A) (A) (A)
                 (A) (A) (A) (A) (A) (A) (A) (A) (A) (A) (A) (A)
                 (A) (A) (A) (A) (A) (A) (A) (A) (A) (A) (A) (A)
                 (A) (A) (A) (A) (A) (A) (A) (A) (A) (A) (A) (A)
                 (A) (A) (A) (A) (A) (A) (A) (A) (A) (A) (A) (A)
                 (A) (A) (A) (A) (A) (A) (A) (A) (A) (A) (A) (A)
                 (A) (A) (A) (A) (A) (A) (A) (A) (A) (A) (A) (A)
                 (A) (A) (A) (A) (A) (A) (A) (A) (A) (A) (A) (A)
                 (A) (A) (A) (A) (A) (A) (A) (A) (A) (A) (A) (A)
                 (A) (A) (A) (A) (A) (A) (A) (A) (A) (A) (A) (A)
                 (A) (A) (A) (A) (A) (A) (A) (A) (A) (A) (A) (A)
                 (A) (A) (A) (A) (A) (A) (A) (A) (A) (A) (A) (A)
                 (A) (A) (A) (A) (A) (A) (A) (A) (A) (A) (A) (A)
                 (A) (A) (A) (A) (A) (A) (A) (A) (A) (A) (A) (A)
                 (A) (A) (A) (A) (A)
 The electronic state is 1-A.
 Alpha  occ. eigenvalues --  -19.18271 -19.12625 -14.30491 -10.31667 -10.22686
 Alpha  occ. eigenvalues --  -10.18957 -10.16578 -10.15841  -1.10636  -1.02072
 Alpha  occ. eigenvalues --   -0.90148  -0.80017  -0.71680  -0.68755  -0.62481
 Alpha  occ. eigenvalues --   -0.57282  -0.52778  -0.49342  -0.49115  -0.47648
 Alpha  occ. eigenvalues --   -0.45833  -0.42285  -0.42219  -0.40208  -0.39357
 Alpha  occ. eigenvalues --   -0.38680  -0.35342  -0.34390  -0.33738  -0.33025
 Alpha  occ. eigenvalues --   -0.29461  -0.25147
 Alpha virt. eigenvalues --   -0.02273  -0.01503  -0.00078   0.00313   0.01201
 Alpha virt. eigenvalues --    0.02507   0.03660   0.03895   0.04645   0.05328
 Alpha virt. eigenvalues --    0.06787   0.07030   0.07759   0.08224   0.08721
 Alpha virt. eigenvalues --    0.09479   0.10181   0.10397   0.10633   0.12033
 Alpha virt. eigenvalues --    0.12606   0.13254   0.13295   0.13957   0.14426
 Alpha virt. eigenvalues --    0.14540   0.15145   0.16023   0.16387   0.16988
 Alpha virt. eigenvalues --    0.17623   0.17833   0.18342   0.19116   0.19969
 Alpha virt. eigenvalues --    0.20670   0.21084   0.21625   0.22455   0.22871
 Alpha virt. eigenvalues --    0.23852   0.24130   0.24838   0.25667   0.25790
 Alpha virt. eigenvalues --    0.27560   0.27942   0.28464   0.30131   0.31167
 Alpha virt. eigenvalues --    0.31694   0.31816   0.32419   0.33498   0.34388
 Alpha virt. eigenvalues --    0.35191   0.36131   0.36830   0.37410   0.39577
 Alpha virt. eigenvalues --    0.42137   0.43830   0.44941   0.47303   0.49427
 Alpha virt. eigenvalues --    0.52029   0.53480   0.54168   0.55046   0.58367
 Alpha virt. eigenvalues --    0.59117   0.59788   0.61300   0.63050   0.64963
 Alpha virt. eigenvalues --    0.65438   0.66185   0.67987   0.69180   0.69206
 Alpha virt. eigenvalues --    0.69859   0.71579   0.73468   0.73958   0.75105
 Alpha virt. eigenvalues --    0.77941   0.78156   0.78611   0.83463   0.86479
 Alpha virt. eigenvalues --    0.87365   0.89693   0.92906   0.98208   0.99957
 Alpha virt. eigenvalues --    1.05240   1.06581   1.08701   1.11519   1.13331
 Alpha virt. eigenvalues --    1.15822   1.16157   1.17834   1.20681   1.23681
 Alpha virt. eigenvalues --    1.24516   1.25815   1.28456   1.31545   1.39558
 Alpha virt. eigenvalues --    1.42635   1.43298   1.44988   1.46238   1.46884
 Alpha virt. eigenvalues --    1.50957   1.52928   1.54667   1.56871   1.58215
 Alpha virt. eigenvalues --    1.58380   1.59424   1.61421   1.61674   1.63246
 Alpha virt. eigenvalues --    1.65734   1.67345   1.68469   1.70638   1.73013
 Alpha virt. eigenvalues --    1.75159   1.77006   1.77444   1.79349   1.81558
 Alpha virt. eigenvalues --    1.83508   1.86686   1.90034   1.93994   1.94877
 Alpha virt. eigenvalues --    1.96579   2.00544   2.04629   2.05699   2.08447
 Alpha virt. eigenvalues --    2.11995   2.12261   2.14855   2.20115   2.21724
 Alpha virt. eigenvalues --    2.28165   2.31903   2.33864   2.38892   2.44393
 Alpha virt. eigenvalues --    2.47822   2.48705   2.50888   2.52160   2.53101
 Alpha virt. eigenvalues --    2.54732   2.57557   2.59242   2.60650   2.61429
 Alpha virt. eigenvalues --    2.65158   2.67361   2.70010   2.70189   2.72720
 Alpha virt. eigenvalues --    2.74131   2.76915   2.80717   2.84457   2.86284
 Alpha virt. eigenvalues --    2.88236   2.89940   2.93353   2.94383   2.98050
 Alpha virt. eigenvalues --    3.00104   3.01268   3.04413   3.07701   3.10116
 Alpha virt. eigenvalues --    3.15058   3.16305   3.19749   3.25844   3.33868
 Alpha virt. eigenvalues --    3.42101   3.54827   3.60909   3.63126   3.77410
 Alpha virt. eigenvalues --    3.78887   3.80001   3.83225   3.83618   3.97425
 Alpha virt. eigenvalues --    4.04586   4.07411   4.14090   4.26669   4.30318
 Alpha virt. eigenvalues --    4.75093   4.85346   5.00044   5.07367   5.16822
 Alpha virt. eigenvalues --    5.34806   5.55100   5.82356  23.73574  23.79601
 Alpha virt. eigenvalues --   23.82487  23.96883  23.97177  35.61559  49.86194
 Alpha virt. eigenvalues --   49.99190
          Condensed to atoms (all electrons):
               1          2          3          4          5          6
     1  N    6.691328   0.372006  -0.032602  -0.063624   0.103806  -0.057359
     2  H    0.372006   0.434998   0.009660   0.012760  -0.031025  -0.023802
     3  C   -0.032602   0.009660   8.236807   0.418362  -1.450098  -0.993867
     4  H   -0.063624   0.012760   0.418362   0.543471   0.047235  -0.121248
     5  C    0.103806  -0.031025  -1.450098   0.047235   7.412974   0.043685
     6  C   -0.057359  -0.023802  -0.993867  -0.121248   0.043685   6.655144
     7  C    0.041074   0.001786   0.105596  -0.093849  -0.579346   0.196611
     8  O   -0.050375   0.008286   0.101943   0.002649  -0.121076   0.453667
     9  H   -0.000092  -0.000452  -0.068533   0.008945   0.100861   0.011591
    10  H   -0.000792  -0.000045   0.039403  -0.002611  -0.093482  -0.006856
    11  H   -0.006153   0.001667   0.017105   0.000232  -0.111106  -0.023424
    12  H    0.388732  -0.040010  -0.029947  -0.017508   0.000390   0.005910
    13  O    0.005839  -0.000575   0.072706   0.002130  -0.142307   0.084630
    14  H   -0.004603  -0.000245  -0.075976   0.002112   0.007640   0.089726
    15  H   -0.017504   0.002344  -0.094411   0.023919   0.587863   0.004373
    16  C   -0.087737   0.004282   0.343336  -0.014814  -0.168909  -0.184299
    17  H    0.007723  -0.000625  -0.050444  -0.001693  -0.040574   0.004838
    18  H    0.003689   0.000136   0.038359  -0.001314  -0.104326  -0.005838
    19  H   -0.007140   0.000218  -0.021822   0.010132   0.055516  -0.001267
               7          8          9         10         11         12
     1  N    0.041074  -0.050375  -0.000092  -0.000792  -0.006153   0.388732
     2  H    0.001786   0.008286  -0.000452  -0.000045   0.001667  -0.040010
     3  C    0.105596   0.101943  -0.068533   0.039403   0.017105  -0.029947
     4  H   -0.093849   0.002649   0.008945  -0.002611   0.000232  -0.017508
     5  C   -0.579346  -0.121076   0.100861  -0.093482  -0.111106   0.000390
     6  C    0.196611   0.453667   0.011591  -0.006856  -0.023424   0.005910
     7  C    6.026455   0.015421   0.338781   0.414451   0.464400   0.002157
     8  O    0.015421   8.004652  -0.000793  -0.000590  -0.006066  -0.000344
     9  H    0.338781  -0.000793   0.554376  -0.034238  -0.046573  -0.000244
    10  H    0.414451  -0.000590  -0.034238   0.561800  -0.025245   0.000099
    11  H    0.464400  -0.006066  -0.046573  -0.025245   0.582116  -0.000450
    12  H    0.002157  -0.000344  -0.000244   0.000099  -0.000450   0.446873
    13  O    0.001233  -0.141668  -0.000230  -0.001772  -0.000826   0.000746
    14  H   -0.000135  -0.001242   0.000447  -0.000097  -0.000242  -0.000433
    15  H   -0.136678  -0.003800   0.017104  -0.014978  -0.015835  -0.002204
    16  C   -0.112388   0.004659  -0.037600   0.007958   0.004689  -0.001035
    17  H    0.019214   0.000286  -0.002575   0.002240  -0.001464   0.002266
    18  H    0.002523  -0.000227   0.001084   0.000455   0.002314   0.000236
    19  H   -0.023143   0.000136   0.010032   0.000953  -0.002104  -0.000697
              13         14         15         16         17         18
     1  N    0.005839  -0.004603  -0.017504  -0.087737   0.007723   0.003689
     2  H   -0.000575  -0.000245   0.002344   0.004282  -0.000625   0.000136
     3  C    0.072706  -0.075976  -0.094411   0.343336  -0.050444   0.038359
     4  H    0.002130   0.002112   0.023919  -0.014814  -0.001693  -0.001314
     5  C   -0.142307   0.007640   0.587863  -0.168909  -0.040574  -0.104326
     6  C    0.084630   0.089726   0.004373  -0.184299   0.004838  -0.005838
     7  C    0.001233  -0.000135  -0.136678  -0.112388   0.019214   0.002523
     8  O   -0.141668  -0.001242  -0.003800   0.004659   0.000286  -0.000227
     9  H   -0.000230   0.000447   0.017104  -0.037600  -0.002575   0.001084
    10  H   -0.001772  -0.000097  -0.014978   0.007958   0.002240   0.000455
    11  H   -0.000826  -0.000242  -0.015835   0.004689  -0.001464   0.002314
    12  H    0.000746  -0.000433  -0.002204  -0.001035   0.002266   0.000236
    13  O    8.024964   0.229547   0.004581   0.004497   0.000190   0.000317
    14  H    0.229547   0.474028   0.000963  -0.003139  -0.000061  -0.000197
    15  H    0.004581   0.000963   0.576124  -0.097220  -0.006454  -0.015033
    16  C    0.004497  -0.003139  -0.097220   5.667770   0.423876   0.426354
    17  H    0.000190  -0.000061  -0.006454   0.423876   0.523330  -0.022375
    18  H    0.000317  -0.000197  -0.015033   0.426354  -0.022375   0.574318
    19  H    0.000248   0.000107   0.011974   0.337573  -0.040222  -0.037967
              19
     1  N   -0.007140
     2  H    0.000218
     3  C   -0.021822
     4  H    0.010132
     5  C    0.055516
     6  C   -0.001267
     7  C   -0.023143
     8  O    0.000136
     9  H    0.010032
    10  H    0.000953
    11  H   -0.002104
    12  H   -0.000697
    13  O    0.000248
    14  H    0.000107
    15  H    0.011974
    16  C    0.337573
    17  H   -0.040222
    18  H   -0.037967
    19  H    0.577882
 Mulliken charges:
               1
     1  N   -0.286218
     2  H    0.248634
     3  C   -0.565577
     4  H    0.244713
     5  C    0.482278
     6  C   -0.132215
     7  C   -0.684163
     8  O   -0.265518
     9  H    0.148109
    10  H    0.153348
    11  H    0.166964
    12  H    0.245462
    13  O   -0.144251
    14  H    0.281801
    15  H    0.174873
    16  C   -0.517852
    17  H    0.182526
    18  H    0.137493
    19  H    0.129593
 Sum of Mulliken charges =   0.00000
 Mulliken charges with hydrogens summed into heavy atoms:
               1
     1  N    0.207878
     3  C   -0.320864
     5  C    0.657151
     6  C   -0.132215
     7  C   -0.215742
     8  O   -0.265518
    13  O    0.137550
    16  C   -0.068240
 Electronic spatial extent (au):  <R**2>=           1080.2115
 Charge=              0.0000 electrons
 Dipole moment (field-independent basis, Debye):
    X=              0.0343    Y=             -0.5694    Z=             -1.1830  Tot=              1.3134
 Quadrupole moment (field-independent basis, Debye-Ang):
   XX=            -50.2734   YY=            -48.2500   ZZ=            -52.2591
   XY=              0.7476   XZ=              4.4132   YZ=             -1.5988
 Traceless Quadrupole moment (field-independent basis, Debye-Ang):
   XX=             -0.0125   YY=              2.0108   ZZ=             -1.9983
   XY=              0.7476   XZ=              4.4132   YZ=             -1.5988
 Octapole moment (field-independent basis, Debye-Ang**2):
  XXX=            -28.1718  YYY=              7.2322  ZZZ=             -2.8027  XYY=            -16.5607
  XXY=            -16.1173  XXZ=             -8.4881  XZZ=              3.1261  YZZ=              4.3694
  YYZ=              0.3762  XYZ=              2.9688
 Hexadecapole moment (field-independent basis, Debye-Ang**3):
 XXXX=           -756.5841 YYYY=           -428.8167 ZZZZ=           -172.1117 XXXY=             44.0093
 XXXZ=             36.5885 YYYX=             -4.2813 YYYZ=              0.7982 ZZZX=              3.0603
 ZZZY=              0.8286 XXYY=           -196.6945 XXZZ=           -175.6191 YYZZ=            -94.8201
 XXYZ=             -0.4944 YYXZ=              6.3447 ZZXY=             -1.2661
 N-N= 4.028745129094D+02 E-N=-1.746180651626D+03  KE= 4.006007052924D+02
 Calling FoFJK, ICntrl=      2127 FMM=F ISym2X=0 I1Cent= 0 IOpClX= 0 NMat=1 NMatS=1 NMatT=0.
 ***** Axes restored to original set *****
 -------------------------------------------------------------------
 Center     Atomic                   Forces (Hartrees/Bohr)
 Number     Number              X              Y              Z
 -------------------------------------------------------------------
      1        7          -0.009204249   -0.001567371    0.002263339
      2        1           0.003670047   -0.001405132    0.004163691
      3        6           0.000831589    0.004955059   -0.003362316
      4        1          -0.000033566    0.000697122   -0.000753941
      5        6           0.000741486   -0.000425702    0.000430197
      6        6           0.033580339   -0.003018301   -0.026414415
      7        6          -0.000288025    0.001637730   -0.000173000
      8        8          -0.022037342   -0.012371640    0.037074478
      9        1          -0.000206578    0.000244182   -0.001592125
     10        1           0.001390409    0.000781287    0.000856264
     11        1          -0.001631938    0.000542768    0.000572562
     12        1           0.002768913   -0.003179223   -0.003942991
     13        8           0.000925162    0.006686890   -0.010318341
     14        1          -0.012439226    0.008096549   -0.000335124
     15        1          -0.000249717   -0.000735818    0.002426419
     16        6           0.001517834   -0.000581275   -0.000228747
     17        1          -0.000864029   -0.001782180    0.000010628
     18        1           0.001421367    0.000862653    0.000998354
     19        1           0.000107523    0.000562402   -0.001674930
 -------------------------------------------------------------------
 Cartesian Forces:  Max     0.037074478 RMS     0.008834786

 GradGradGradGradGradGradGradGradGradGradGradGradGradGradGradGradGradGrad
 Berny optimization.
 FormGI is forming the generalized inverse of G from B-inverse, IUseBI=4.
 Internal  Forces:  Max     0.044863254 RMS     0.005713758
 Search for a local minimum.
 Step number   1 out of a maximum of  100
 All quantities printed in internal units (Hartrees-Bohrs-Radians)
 Mixed Optimization -- RFO/linear search
 Second derivative matrix not updated -- first step.
 ITU=  0
     Eigenvalues ---    0.00230   0.00230   0.00261   0.00448   0.00806
     Eigenvalues ---    0.00866   0.01960   0.03043   0.03380   0.04519
     Eigenvalues ---    0.04583   0.04901   0.05190   0.05288   0.05515
     Eigenvalues ---    0.05528   0.05566   0.06342   0.16000   0.16000
     Eigenvalues ---    0.16000   0.16000   0.16000   0.16000   0.16000
     Eigenvalues ---    0.16000   0.16000   0.16620   0.17068   0.17256
     Eigenvalues ---    0.18470   0.25000   0.25000   0.26617   0.28445
     Eigenvalues ---    0.28680   0.29981   0.33524   0.33851   0.34011
     Eigenvalues ---    0.34087   0.34158   0.34206   0.34318   0.34523
     Eigenvalues ---    0.36665   0.45059   0.45388   0.49157   0.50719
     Eigenvalues ---    0.88695
 RFO step:  Lambda=-6.05891099D-03 EMin= 2.30000000D-03
 Linear search not attempted -- first point.
 Iteration  1 RMS(Cart)=  0.03466303 RMS(Int)=  0.00142353
 Iteration  2 RMS(Cart)=  0.00125192 RMS(Int)=  0.00081360
 Iteration  3 RMS(Cart)=  0.00000396 RMS(Int)=  0.00081360
 Iteration  4 RMS(Cart)=  0.00000002 RMS(Int)=  0.00081360
 Variable       Old X    -DE/DX   Delta X   Delta X   Delta X     New X
                                 (Linear)    (Quad)   (Total)
    R1        1.91907  -0.00336   0.00000  -0.00736  -0.00736   1.91171
    R2        2.76354  -0.00627   0.00000  -0.01683  -0.01683   2.74671
    R3        1.91527  -0.00322   0.00000  -0.00701  -0.00701   1.90827
    R4        2.06797  -0.00086   0.00000  -0.00245  -0.00245   2.06552
    R5        2.95266  -0.00274   0.00000  -0.01006  -0.01006   2.94260
    R6        2.88002   0.00024   0.00000   0.00078   0.00078   2.88080
    R7        2.91176  -0.00328   0.00000  -0.01128  -0.01128   2.90049
    R8        2.08141  -0.00255   0.00000  -0.00746  -0.00746   2.07395
    R9        2.90676  -0.00253   0.00000  -0.00863  -0.00863   2.89813
   R10        2.33540  -0.04486   0.00000  -0.05024  -0.05024   2.28517
   R11        2.60726  -0.02105   0.00000  -0.04230  -0.04230   2.56496
   R12        2.07311  -0.00159   0.00000  -0.00460  -0.00460   2.06850
   R13        2.07064  -0.00181   0.00000  -0.00520  -0.00520   2.06544
   R14        2.06983  -0.00180   0.00000  -0.00516  -0.00516   2.06467
   R15        1.85847  -0.01361   0.00000  -0.02651  -0.02651   1.83195
   R16        2.06456  -0.00173   0.00000  -0.00492  -0.00492   2.05964
   R17        2.07183  -0.00194   0.00000  -0.00558  -0.00558   2.06625
   R18        2.07582  -0.00176   0.00000  -0.00510  -0.00510   2.07072
    A1        1.97567  -0.00216   0.00000  -0.04013  -0.04316   1.93251
    A2        1.95352  -0.00021   0.00000  -0.04204  -0.04749   1.90603
    A3        2.00413  -0.00295   0.00000  -0.04444  -0.04741   1.95672
    A4        1.89894  -0.00080   0.00000  -0.00925  -0.00924   1.88970
    A5        1.92550   0.00046   0.00000   0.00455   0.00454   1.93004
    A6        1.93556   0.00072   0.00000   0.00644   0.00643   1.94199
    A7        1.89274   0.00029   0.00000   0.00063   0.00064   1.89338
    A8        1.88441   0.00000   0.00000  -0.00207  -0.00206   1.88234
    A9        1.92550  -0.00070   0.00000  -0.00072  -0.00075   1.92475
   A10        1.96360   0.00038   0.00000   0.00307   0.00308   1.96667
   A11        1.85317  -0.00029   0.00000  -0.00066  -0.00066   1.85251
   A12        1.91672   0.00058   0.00000   0.00472   0.00472   1.92144
   A13        1.89123   0.00002   0.00000  -0.00282  -0.00282   1.88841
   A14        1.93958  -0.00083   0.00000  -0.00448  -0.00449   1.93510
   A15        1.89624   0.00015   0.00000   0.00014   0.00013   1.89637
   A16        2.18356   0.00043   0.00000   0.00166   0.00164   2.18520
   A17        1.97090  -0.00075   0.00000  -0.00292  -0.00294   1.96796
   A18        2.12871   0.00032   0.00000   0.00123   0.00121   2.12993
   A19        1.93614   0.00036   0.00000   0.00276   0.00276   1.93890
   A20        1.91977  -0.00010   0.00000  -0.00145  -0.00145   1.91832
   A21        1.96224   0.00001   0.00000   0.00036   0.00036   1.96260
   A22        1.88313  -0.00019   0.00000  -0.00169  -0.00169   1.88144
   A23        1.88133  -0.00002   0.00000   0.00139   0.00139   1.88272
   A24        1.87846  -0.00008   0.00000  -0.00153  -0.00154   1.87692
   A25        1.92632  -0.01103   0.00000  -0.06641  -0.06641   1.85991
   A26        1.92862   0.00131   0.00000   0.00858   0.00857   1.93720
   A27        1.92843  -0.00032   0.00000  -0.00307  -0.00307   1.92537
   A28        1.92993   0.00005   0.00000   0.00071   0.00070   1.93062
   A29        1.90431  -0.00062   0.00000  -0.00454  -0.00453   1.89978
   A30        1.89069  -0.00044   0.00000  -0.00049  -0.00051   1.89018
   A31        1.88072  -0.00002   0.00000  -0.00148  -0.00148   1.87924
    D1        2.97931  -0.00267   0.00000  -0.07253  -0.07113   2.90818
    D2       -1.22954  -0.00254   0.00000  -0.07471  -0.07332  -1.30286
    D3        0.90918  -0.00261   0.00000  -0.06809  -0.06667   0.84252
    D4        0.70625   0.00252   0.00000   0.06993   0.06852   0.77477
    D5        2.78059   0.00266   0.00000   0.06775   0.06632   2.84691
    D6       -1.36388   0.00259   0.00000   0.07437   0.07298  -1.29090
    D7        3.03950   0.00046   0.00000  -0.00789  -0.00790   3.03160
    D8        0.97350   0.00039   0.00000  -0.00575  -0.00575   0.96775
    D9       -1.07354   0.00008   0.00000  -0.00797  -0.00797  -1.08151
   D10       -1.16557  -0.00006   0.00000  -0.01610  -0.01611  -1.18167
   D11        3.05162  -0.00013   0.00000  -0.01396  -0.01396   3.03766
   D12        1.00457  -0.00044   0.00000  -0.01618  -0.01617   0.98840
   D13        0.89489  -0.00029   0.00000  -0.01865  -0.01865   0.87624
   D14       -1.17111  -0.00036   0.00000  -0.01651  -0.01651  -1.18762
   D15        3.06503  -0.00067   0.00000  -0.01873  -0.01872   3.04631
   D16       -0.73091  -0.00067   0.00000  -0.03518  -0.03518  -0.76610
   D17        2.40727  -0.00082   0.00000  -0.04627  -0.04627   2.36100
   D18       -2.80981  -0.00012   0.00000  -0.02638  -0.02638  -2.83618
   D19        0.32838  -0.00028   0.00000  -0.03747  -0.03747   0.29091
   D20        1.40781  -0.00007   0.00000  -0.02550  -0.02550   1.38231
   D21       -1.73719  -0.00023   0.00000  -0.03659  -0.03659  -1.77378
   D22        1.01963   0.00029   0.00000   0.00450   0.00450   1.02413
   D23        3.10170   0.00021   0.00000   0.00321   0.00320   3.10490
   D24       -1.08846   0.00005   0.00000   0.00051   0.00050  -1.08796
   D25        3.06312   0.00017   0.00000   0.00369   0.00368   3.06681
   D26       -1.13800   0.00010   0.00000   0.00240   0.00239  -1.13561
   D27        0.95503  -0.00006   0.00000  -0.00030  -0.00031   0.95472
   D28       -1.13785  -0.00013   0.00000  -0.00058  -0.00058  -1.13842
   D29        0.94422  -0.00021   0.00000  -0.00188  -0.00187   0.94235
   D30        3.03725  -0.00036   0.00000  -0.00458  -0.00457   3.03268
   D31        0.90516   0.00010   0.00000   0.00616   0.00617   0.91134
   D32        3.01446  -0.00002   0.00000   0.00410   0.00410   3.01856
   D33       -1.18805  -0.00023   0.00000   0.00075   0.00075  -1.18731
   D34        3.08917   0.00042   0.00000   0.01035   0.01036   3.09953
   D35       -1.08472   0.00030   0.00000   0.00829   0.00828  -1.07644
   D36        0.99595   0.00009   0.00000   0.00494   0.00493   1.00088
   D37       -1.11479   0.00005   0.00000   0.00428   0.00429  -1.11050
   D38        0.99450  -0.00008   0.00000   0.00222   0.00222   0.99672
   D39        3.07517  -0.00029   0.00000  -0.00113  -0.00114   3.07404
   D40        3.12013   0.00019   0.00000   0.00972   0.00972   3.12985
   D41       -0.02474   0.00004   0.00000  -0.00097  -0.00097  -0.02572
         Item               Value     Threshold  Converged?
 Maximum Force            0.044863     0.000450     NO 
 RMS     Force            0.005714     0.000300     NO 
 Maximum Displacement     0.161216     0.001800     NO 
 RMS     Displacement     0.034806     0.001200     NO 
 Predicted change in Energy=-3.118600D-03
 GradGradGradGradGradGradGradGradGradGradGradGradGradGradGradGradGradGrad

                          Input orientation:                          
 ---------------------------------------------------------------------
 Center     Atomic      Atomic             Coordinates (Angstroms)
 Number     Number       Type             X           Y           Z
 ---------------------------------------------------------------------
      1          7           0       -0.119327    1.957435    0.167895
      2          1           0        0.200703    2.191663   -0.762760
      3          6           0       -0.026470    0.525359    0.398513
      4          1           0       -0.147307    0.342139    1.469277
      5          6           0       -1.158726   -0.226125   -0.361756
      6          6           0        1.337378   -0.014345   -0.016936
      7          6           0       -1.016072   -1.752064   -0.278156
      8          8           0        1.921495    0.276414   -1.035057
      9          1           0       -1.024280   -2.092029    0.762285
     10          1           0       -1.851594   -2.232818   -0.793318
     11          1           0       -0.093620   -2.110828   -0.740857
     12          1           0        0.411348    2.486625    0.844696
     13          8           0        1.865247   -0.867283    0.897484
     14          1           0        2.717727   -1.161152    0.541519
     15          1           0       -1.067470    0.069465   -1.414738
     16          6           0       -2.530078    0.223711    0.156944
     17          1           0       -2.617573    1.309945    0.138089
     18          1           0       -3.327282   -0.205602   -0.456005
     19          1           0       -2.683217   -0.115956    1.187428
 ---------------------------------------------------------------------
                    Distance matrix (angstroms):
                    1          2          3          4          5
     1  N    0.000000
     2  H    1.011632   0.000000
     3  C    1.453495   2.043705   0.000000
     4  H    2.074502   2.919561   1.093026   0.000000
     5  C    2.475644   2.802597   1.557158   2.167620   0.000000
     6  C    2.458468   2.591284   1.524454   2.130774   2.528693
     7  C    3.842329   4.155522   2.573684   2.862509   1.534871
     8  O    2.904802   2.589102   2.431391   3.248992   3.192748
     9  H    4.191705   4.709178   2.824654   2.682180   2.182462
    10  H    4.634965   4.877385   3.515548   3.828098   2.166363
    11  H    4.168603   4.312602   2.872656   3.302215   2.197789
    12  H    1.009811   1.647813   2.058478   2.302394   3.358523
    13  O    3.528437   3.858014   2.401462   2.416614   3.337842
    14  H    4.232500   4.390663   3.224188   3.365863   4.088651
    15  H    2.639722   2.556768   2.139953   3.039505   1.097484
    16  C    2.969451   3.489391   2.533258   2.722837   1.533625
    17  H    2.580962   3.087334   2.719781   2.968320   2.176601
    18  H    3.919050   4.276407   3.487100   3.757522   2.170700
    19  H    3.451366   4.176761   2.844640   2.592321   2.176276
                    6          7          8          9         10
     6  C    0.000000
     7  C    2.937113   0.000000
     8  O    1.209258   3.649236   0.000000
     9  H    3.240584   1.094605   4.185397   0.000000
    10  H    3.961557   1.092983   4.537718   1.767532   0.000000
    11  H    2.639519   1.092576   3.137860   1.768026   1.762982
    12  H    2.802640   4.611378   3.270940   4.799155   5.484263
    13  O    1.357319   3.235269   2.246314   3.141281   4.305625
    14  H    1.879468   3.868113   2.277317   3.862367   4.879441
    15  H    2.782835   2.147656   3.020082   3.068118   2.510283
    16  C    3.878675   2.526897   4.608703   2.827811   2.719903
    17  H    4.173657   3.480512   4.800791   3.808101   3.742381
    18  H    4.689181   2.786551   5.302575   3.216622   2.530028
    19  H    4.198333   2.757563   5.128037   2.614896   3.015967
                   11         12         13         14         15
    11  H    0.000000
    12  H    4.889330   0.000000
    13  O    2.840374   3.655860   0.000000
    14  H    3.232652   4.326382   0.969428   0.000000
    15  H    2.481165   3.624170   3.850286   4.434983   0.000000
    16  C    3.491768   3.774357   4.588851   5.441065   2.152486
    17  H    4.341034   3.325392   5.041100   5.893598   2.520493
    18  H    3.763988   4.787198   5.406673   6.200827   2.470138
    19  H    3.795235   4.057983   4.619208   5.538937   3.068597
                   16         17         18         19
    16  C    0.000000
    17  H    1.089916   0.000000
    18  H    1.093412   1.775815   0.000000
    19  H    1.095775   1.771614   1.767407   0.000000
 Stoichiometry    C5H11NO2
 Framework group  C1[X(C5H11NO2)]
 Deg. of freedom    51
 Full point group                 C1      NOp   1
 Largest Abelian subgroup         C1      NOp   1
 Largest concise Abelian subgroup C1      NOp   1
                         Standard orientation:                         
 ---------------------------------------------------------------------
 Center     Atomic      Atomic             Coordinates (Angstroms)
 Number     Number       Type             X           Y           Z
 ---------------------------------------------------------------------
      1          7           0        0.098253    1.960304   -0.138305
      2          1           0       -0.218799    2.179670    0.796979
      3          6           0        0.014624    0.530812   -0.387720
      4          1           0        0.131418    0.362872   -1.461434
      5          6           0        1.156094   -0.222507    0.356792
      6          6           0       -1.343177   -0.024383    0.027123
      7          6           0        1.024087   -1.748189    0.253362
      8          8           0       -1.924276    0.248402    1.051924
      9          1           0        1.029545   -2.074087   -0.791588
     10          1           0        1.865643   -2.229691    0.757895
     11          1           0        0.106590   -2.119871    0.715719
     12          1           0       -0.439630    2.494636   -0.805306
     13          8           0       -1.869425   -0.868808   -0.896091
     14          1           0       -2.717957   -1.173657   -0.539929
     15          1           0        1.067975    0.058245    1.414093
     16          6           0        2.521532    0.244271   -0.162537
     17          1           0        2.601244    1.330766   -0.129493
     18          1           0        3.324889   -0.187388    0.440652
     19          1           0        2.671963   -0.080403   -1.198240
 ---------------------------------------------------------------------
 Rotational constants (GHZ):      2.7945946      1.5595066      1.2141387
 Standard basis: 6-311++G(d,p) (5D, 7F)
 There are   261 symmetry adapted cartesian basis functions of A   symmetry.
 There are   253 symmetry adapted basis functions of A   symmetry.
   253 basis functions,   387 primitive gaussians,   261 cartesian basis functions
    32 alpha electrons       32 beta electrons
       nuclear repulsion energy       405.5802106808 Hartrees.
 NAtoms=   19 NActive=   19 NUniq=   19 SFac= 1.00D+00 NAtFMM=   60 NAOKFM=F Big=F
 Integral buffers will be    131072 words long.
 Raffenetti 2 integral format.
 Two-electron integral symmetry is turned on.
 One-electron integrals computed using PRISM.
 NBasis=   253 RedAO= T EigKep=  8.94D-06  NBF=   253
 NBsUse=   253 1.00D-06 EigRej= -1.00D+00 NBFU=   253
 Initial guess from the checkpoint file:  "Val-S-opt-6-311gdp.chk"
 B after Tr=     0.000000    0.000000    0.000000
         Rot=    0.999945   -0.009772   -0.001546   -0.003503 Ang=  -1.20 deg.
 ExpMin= 3.60D-02 ExpMax= 8.59D+03 ExpMxC= 1.30D+03 IAcc=3 IRadAn=         5 AccDes= 0.00D+00
 Harris functional with IExCor=  402 and IRadAn=       5 diagonalized for initial guess.
 HarFok:  IExCor=  402 AccDes= 0.00D+00 IRadAn=         5 IDoV= 1 UseB2=F ITyADJ=14
 ICtDFT=  3500011 ScaDFX=  1.000000  1.000000  1.000000  1.000000
 FoFCou: FMM=F IPFlag=           0 FMFlag=      100000 FMFlg1=           0
         NFxFlg=           0 DoJE=T BraDBF=F KetDBF=T FulRan=T
         wScrn=  0.000000 ICntrl=     500 IOpCl=  0 I1Cent=   200000004 NGrid=           0
         NMat0=    1 NMatS0=      1 NMatT0=    0 NMatD0=    1 NMtDS0=    0 NMtDT0=    0
 Petite list used in FoFCou.
 Requested convergence on RMS density matrix=1.00D-08 within 128 cycles.
 Requested convergence on MAX density matrix=1.00D-06.
 Requested convergence on             energy=1.00D-06.
 No special actions if energy rises.
 SCF Done:  E(RB3LYP) =  -402.502682960     A.U. after   11 cycles
            NFock= 11  Conv=0.83D-08     -V/T= 2.0040
 Calling FoFJK, ICntrl=      2127 FMM=F ISym2X=0 I1Cent= 0 IOpClX= 0 NMat=1 NMatS=1 NMatT=0.
 ***** Axes restored to original set *****
 -------------------------------------------------------------------
 Center     Atomic                   Forces (Hartrees/Bohr)
 Number     Number              X              Y              Z
 -------------------------------------------------------------------
      1        7          -0.006550933    0.001396692    0.000309534
      2        1           0.002264977    0.001419197   -0.001907251
      3        6          -0.001131644   -0.002798710    0.000159319
      4        1          -0.000295197   -0.000663395    0.000240167
      5        6           0.000809408    0.000564175    0.000778813
      6        6           0.004159158   -0.001119046   -0.000964258
      7        6          -0.000116727    0.000493982    0.000048783
      8        8          -0.002491237   -0.000460210    0.002176326
      9        1          -0.000118115   -0.000193003    0.000005763
     10        1           0.000109889   -0.000224326    0.000001492
     11        1           0.000066210   -0.000252095   -0.000155880
     12        1           0.002980301    0.001421614    0.000451574
     13        8          -0.000565201    0.001064833   -0.001367448
     14        1           0.001015444   -0.000889702    0.000550324
     15        1          -0.000145064    0.000123890   -0.000124569
     16        6           0.000624871   -0.000160676   -0.000179219
     17        1          -0.000341889    0.000083131   -0.000039883
     18        1          -0.000210470    0.000121697    0.000004758
     19        1          -0.000063781    0.000071952    0.000011653
 -------------------------------------------------------------------
 Cartesian Forces:  Max     0.006550933 RMS     0.001422858

 GradGradGradGradGradGradGradGradGradGradGradGradGradGradGradGradGradGrad
 Berny optimization.
 Using GEDIIS/GDIIS optimizer.
 FormGI is forming the generalized inverse of G from B-inverse, IUseBI=4.
 Internal  Forces:  Max     0.004438764 RMS     0.000864451
 Search for a local minimum.
 Step number   2 out of a maximum of  100
 All quantities printed in internal units (Hartrees-Bohrs-Radians)
 Mixed Optimization -- En-DIIS/RFO-DIIS
 Update second derivatives using D2CorX and points    1    2
 DE= -3.29D-03 DEPred=-3.12D-03 R= 1.05D+00
 TightC=F SS=  1.41D+00  RLast= 2.37D-01 DXNew= 5.0454D-01 7.1064D-01
 Trust test= 1.05D+00 RLast= 2.37D-01 DXMaxT set to 5.05D-01
 ITU=  1  0
 Use linear search instead of GDIIS.
     Eigenvalues ---    0.00230   0.00231   0.00261   0.00451   0.00808
     Eigenvalues ---    0.00866   0.01960   0.03351   0.03415   0.04456
     Eigenvalues ---    0.04613   0.04879   0.05204   0.05272   0.05465
     Eigenvalues ---    0.05530   0.05571   0.06368   0.15931   0.16000
     Eigenvalues ---    0.16000   0.16000   0.16000   0.16000   0.16000
     Eigenvalues ---    0.16000   0.16654   0.16835   0.17102   0.17317
     Eigenvalues ---    0.18610   0.24987   0.25053   0.26538   0.28459
     Eigenvalues ---    0.28674   0.29971   0.33531   0.33849   0.34012
     Eigenvalues ---    0.34090   0.34156   0.34214   0.34328   0.34526
     Eigenvalues ---    0.37534   0.45098   0.45412   0.49570   0.52185
     Eigenvalues ---    0.85758
 RFO step:  Lambda=-3.37237066D-04 EMin= 2.29994614D-03
 Quartic linear search produced a step of  0.04749.
 Iteration  1 RMS(Cart)=  0.00958091 RMS(Int)=  0.00018562
 Iteration  2 RMS(Cart)=  0.00016167 RMS(Int)=  0.00010112
 Iteration  3 RMS(Cart)=  0.00000004 RMS(Int)=  0.00010112
 Variable       Old X    -DE/DX   Delta X   Delta X   Delta X     New X
                                 (Linear)    (Quad)   (Total)
    R1        1.91171   0.00280  -0.00035   0.00642   0.00607   1.91778
    R2        2.74671   0.00444  -0.00080   0.01252   0.01172   2.75843
    R3        1.90827   0.00262  -0.00033   0.00596   0.00563   1.91390
    R4        2.06552   0.00038  -0.00012   0.00114   0.00102   2.06654
    R5        2.94260  -0.00092  -0.00048  -0.00367  -0.00415   2.93846
    R6        2.88080   0.00229   0.00004   0.00796   0.00800   2.88880
    R7        2.90049   0.00016  -0.00054   0.00053  -0.00001   2.90048
    R8        2.07395   0.00014  -0.00035   0.00039   0.00004   2.07398
    R9        2.89813  -0.00004  -0.00041  -0.00018  -0.00059   2.89754
   R10        2.28517  -0.00314  -0.00239  -0.00406  -0.00645   2.27872
   R11        2.56496  -0.00049  -0.00201  -0.00132  -0.00333   2.56163
   R12        2.06850   0.00006  -0.00022   0.00017  -0.00005   2.06845
   R13        2.06544   0.00002  -0.00025   0.00002  -0.00023   2.06521
   R14        2.06467   0.00021  -0.00025   0.00060   0.00035   2.06502
   R15        1.83195   0.00097  -0.00126   0.00181   0.00055   1.83250
   R16        2.05964   0.00011  -0.00023   0.00030   0.00007   2.05971
   R17        2.06625   0.00010  -0.00026   0.00028   0.00001   2.06626
   R18        2.07072   0.00000  -0.00024  -0.00002  -0.00026   2.07045
    A1        1.93251   0.00047  -0.00205  -0.00508  -0.00748   1.92503
    A2        1.90603  -0.00124  -0.00226  -0.02223  -0.02515   1.88089
    A3        1.95672  -0.00037  -0.00225  -0.01037  -0.01297   1.94375
    A4        1.88970   0.00033  -0.00044   0.00483   0.00439   1.89409
    A5        1.93004  -0.00063   0.00022  -0.00394  -0.00372   1.92632
    A6        1.94199   0.00043   0.00031   0.00294   0.00324   1.94523
    A7        1.89338  -0.00003   0.00003  -0.00234  -0.00230   1.89107
    A8        1.88234  -0.00020  -0.00010  -0.00089  -0.00100   1.88134
    A9        1.92475   0.00011  -0.00004  -0.00055  -0.00058   1.92417
   A10        1.96667   0.00010   0.00015   0.00154   0.00169   1.96836
   A11        1.85251  -0.00001  -0.00003  -0.00017  -0.00020   1.85231
   A12        1.92144   0.00000   0.00022   0.00053   0.00075   1.92220
   A13        1.88841  -0.00001  -0.00013  -0.00029  -0.00043   1.88798
   A14        1.93510  -0.00001  -0.00021   0.00037   0.00015   1.93525
   A15        1.89637  -0.00007   0.00001  -0.00218  -0.00218   1.89420
   A16        2.18520  -0.00163   0.00008  -0.00666  -0.00669   2.17851
   A17        1.96796   0.00088  -0.00014   0.00375   0.00350   1.97147
   A18        2.12993   0.00075   0.00006   0.00326   0.00321   2.13314
   A19        1.93890   0.00018   0.00013   0.00146   0.00159   1.94049
   A20        1.91832   0.00023  -0.00007   0.00110   0.00103   1.91935
   A21        1.96260   0.00017   0.00002   0.00122   0.00124   1.96384
   A22        1.88144  -0.00023  -0.00008  -0.00171  -0.00179   1.87965
   A23        1.88272  -0.00011   0.00007  -0.00001   0.00005   1.88277
   A24        1.87692  -0.00027  -0.00007  -0.00232  -0.00239   1.87453
   A25        1.85991   0.00200  -0.00315   0.01279   0.00963   1.86955
   A26        1.93720   0.00036   0.00041   0.00231   0.00272   1.93991
   A27        1.92537   0.00019  -0.00015   0.00109   0.00094   1.92631
   A28        1.93062   0.00003   0.00003   0.00040   0.00043   1.93105
   A29        1.89978  -0.00033  -0.00022  -0.00254  -0.00275   1.89703
   A30        1.89018  -0.00017  -0.00002  -0.00078  -0.00081   1.88937
   A31        1.87924  -0.00011  -0.00007  -0.00065  -0.00072   1.87852
    D1        2.90818  -0.00050  -0.00338  -0.00296  -0.00615   2.90203
    D2       -1.30286  -0.00070  -0.00348  -0.00516  -0.00846  -1.31132
    D3        0.84252  -0.00071  -0.00317  -0.00658  -0.00958   0.83294
    D4        0.77477   0.00103   0.00325   0.03663   0.03971   0.81448
    D5        2.84691   0.00083   0.00315   0.03443   0.03740   2.88431
    D6       -1.29090   0.00082   0.00347   0.03300   0.03628  -1.25462
    D7        3.03160   0.00004  -0.00038  -0.00095  -0.00133   3.03027
    D8        0.96775   0.00000  -0.00027  -0.00135  -0.00162   0.96613
    D9       -1.08151   0.00009  -0.00038   0.00106   0.00068  -1.08083
   D10       -1.18167   0.00006  -0.00076   0.00120   0.00043  -1.18124
   D11        3.03766   0.00002  -0.00066   0.00080   0.00014   3.03780
   D12        0.98840   0.00011  -0.00077   0.00321   0.00244   0.99084
   D13        0.87624  -0.00014  -0.00089  -0.00159  -0.00248   0.87376
   D14       -1.18762  -0.00018  -0.00078  -0.00198  -0.00277  -1.19039
   D15        3.04631  -0.00009  -0.00089   0.00042  -0.00047   3.04584
   D16       -0.76610   0.00009  -0.00167  -0.02991  -0.03156  -0.79766
   D17        2.36100   0.00031  -0.00220  -0.00232  -0.00454   2.35646
   D18       -2.83618  -0.00043  -0.00125  -0.03695  -0.03818  -2.87436
   D19        0.29091  -0.00022  -0.00178  -0.00936  -0.01116   0.27975
   D20        1.38231  -0.00034  -0.00121  -0.03329  -0.03448   1.34783
   D21       -1.77378  -0.00012  -0.00174  -0.00570  -0.00746  -1.78124
   D22        1.02413   0.00006   0.00021   0.00617   0.00639   1.03052
   D23        3.10490   0.00003   0.00015   0.00567   0.00583   3.11073
   D24       -1.08796  -0.00004   0.00002   0.00429   0.00431  -1.08364
   D25        3.06681   0.00010   0.00017   0.00668   0.00686   3.07366
   D26       -1.13561   0.00008   0.00011   0.00618   0.00630  -1.12931
   D27        0.95472   0.00000  -0.00001   0.00480   0.00478   0.95950
   D28       -1.13842   0.00000  -0.00003   0.00405   0.00402  -1.13440
   D29        0.94235  -0.00003  -0.00009   0.00355   0.00346   0.94581
   D30        3.03268  -0.00010  -0.00022   0.00217   0.00195   3.03463
   D31        0.91134   0.00000   0.00029   0.00601   0.00630   0.91764
   D32        3.01856  -0.00005   0.00019   0.00507   0.00526   3.02382
   D33       -1.18731  -0.00005   0.00004   0.00520   0.00524  -1.18207
   D34        3.09953   0.00011   0.00049   0.00865   0.00914   3.10867
   D35       -1.07644   0.00006   0.00039   0.00771   0.00810  -1.06833
   D36        1.00088   0.00007   0.00023   0.00784   0.00808   1.00896
   D37       -1.11050   0.00005   0.00020   0.00716   0.00736  -1.10314
   D38        0.99672   0.00000   0.00011   0.00622   0.00632   1.00304
   D39        3.07404   0.00001  -0.00005   0.00635   0.00630   3.08034
   D40        3.12985  -0.00007   0.00046  -0.01227  -0.01187   3.11797
   D41       -0.02572   0.00012  -0.00005   0.01423   0.01425  -0.01147
         Item               Value     Threshold  Converged?
 Maximum Force            0.004439     0.000450     NO 
 RMS     Force            0.000864     0.000300     NO 
 Maximum Displacement     0.038644     0.001800     NO 
 RMS     Displacement     0.009599     0.001200     NO 
 Predicted change in Energy=-1.833500D-04
 GradGradGradGradGradGradGradGradGradGradGradGradGradGradGradGradGradGrad

                          Input orientation:                          
 ---------------------------------------------------------------------
 Center     Atomic      Atomic             Coordinates (Angstroms)
 Number     Number       Type             X           Y           Z
 ---------------------------------------------------------------------
      1          7           0       -0.129035    1.964627    0.170951
      2          1           0        0.200679    2.194404   -0.760928
      3          6           0       -0.029361    0.526966    0.403131
      4          1           0       -0.152211    0.338543    1.473316
      5          6           0       -1.157864   -0.223883   -0.358854
      6          6           0        1.339200   -0.012902   -0.012162
      7          6           0       -1.013908   -1.749997   -0.280943
      8          8           0        1.901660    0.257079   -1.044060
      9          1           0       -1.028703   -2.096156    0.757351
     10          1           0       -1.845044   -2.230455   -0.803167
     11          1           0       -0.088999   -2.107140   -0.740424
     12          1           0        0.431798    2.485331    0.834336
     13          8           0        1.873640   -0.858751    0.902411
     14          1           0        2.722547   -1.164209    0.546872
     15          1           0       -1.066699    0.075276   -1.410857
     16          6           0       -2.530838    0.222631    0.157492
     17          1           0       -2.625368    1.308246    0.135105
     18          1           0       -3.326856   -0.211105   -0.453892
     19          1           0       -2.683754   -0.113954    1.188872
 ---------------------------------------------------------------------
                    Distance matrix (angstroms):
                    1          2          3          4          5
     1  N    0.000000
     2  H    1.014844   0.000000
     3  C    1.459696   2.046534   0.000000
     4  H    2.083468   2.925850   1.093568   0.000000
     5  C    2.475633   2.802751   1.554964   2.164372   0.000000
     6  C    2.469790   2.594047   1.528688   2.134119   2.529830
     7  C    3.845210   4.154986   2.573295   2.860410   1.534867
     8  O    2.918166   2.593593   2.428177   3.249954   3.171990
     9  H    4.200384   4.714389   2.829298   2.684885   2.183576
    10  H    4.635979   4.875053   3.515000   3.827246   2.167017
    11  H    4.172708   4.311336   2.872244   3.299395   2.198801
    12  H    1.012791   1.637963   2.057620   2.314748   3.360144
    13  O    3.537966   3.858400   2.406430   2.421470   3.344229
    14  H    4.249994   4.398913   3.233223   3.373543   4.094160
    15  H    2.636470   2.553303   2.137906   3.037112   1.097505
    16  C    2.967050   3.491786   2.531865   2.720789   1.533311
    17  H    2.581434   3.094301   2.724241   2.974498   2.178298
    18  H    3.917946   4.280684   3.486073   3.754280   2.171110
    19  H    3.447209   4.177343   2.841472   2.587349   2.176207
                    6          7          8          9         10
     6  C    0.000000
     7  C    2.937152   0.000000
     8  O    1.205846   3.620945   0.000000
     9  H    3.246393   1.094578   4.167713   0.000000
    10  H    3.960132   1.092861   4.503737   1.766258   0.000000
    11  H    2.637414   1.092763   3.105552   1.768190   1.761488
    12  H    2.789464   4.612149   3.264042   4.809264   5.486717
    13  O    1.355556   3.245393   2.243794   3.158450   4.314995
    14  H    1.884589   3.871630   2.285821   3.871008   4.880817
    15  H    2.784326   2.147350   2.996456   3.068825   2.508287
    16  C    3.880909   2.526769   4.592598   2.827192   2.722280
    17  H    4.181497   3.481774   4.794723   3.811362   3.743216
    18  H    4.691108   2.783492   5.282507   3.209678   2.528939
    19  H    4.199625   2.761408   5.113675   2.618115   3.025100
                   11         12         13         14         15
    11  H    0.000000
    12  H    4.882816   0.000000
    13  O    2.847689   3.642311   0.000000
    14  H    3.232806   4.318485   0.969720   0.000000
    15  H    2.483610   3.618667   3.856061   4.441554   0.000000
    16  C    3.492372   3.788818   4.596054   5.447292   2.150613
    17  H    4.343338   3.349734   5.052297   5.906164   2.517869
    18  H    3.763079   4.801852   5.413331   6.205256   2.471054
    19  H    3.798385   4.072916   4.626729   5.544663   3.067452
                   16         17         18         19
    16  C    0.000000
    17  H    1.089952   0.000000
    18  H    1.093418   1.774100   0.000000
    19  H    1.095636   1.771012   1.766831   0.000000
 Stoichiometry    C5H11NO2
 Framework group  C1[X(C5H11NO2)]
 Deg. of freedom    51
 Full point group                 C1      NOp   1
 Largest Abelian subgroup         C1      NOp   1
 Largest concise Abelian subgroup C1      NOp   1
                         Standard orientation:                         
 ---------------------------------------------------------------------
 Center     Atomic      Atomic             Coordinates (Angstroms)
 Number     Number       Type             X           Y           Z
 ---------------------------------------------------------------------
      1          7           0        0.116267    1.967590   -0.132339
      2          1           0       -0.207895    2.180129    0.805560
      3          6           0        0.017725    0.534093   -0.389414
      4          1           0        0.134066    0.364960   -1.463541
      5          6           0        1.152444   -0.227999    0.351897
      6          6           0       -1.347167   -0.015715    0.024915
      7          6           0        1.010768   -1.752763    0.247771
      8          8           0       -1.903503    0.234795    1.065010
      9          1           0        1.019549   -2.080383   -0.796589
     10          1           0        1.846102   -2.240820    0.756066
     11          1           0        0.089469   -2.119803    0.706705
     12          1           0       -0.449745    2.498919   -0.782773
     13          8           0       -1.885909   -0.846205   -0.901139
     14          1           0       -2.731966   -1.159574   -0.545692
     15          1           0        1.067468    0.052237    1.409613
     16          6           0        2.521271    0.230274   -0.165155
     17          1           0        2.613968    1.315500   -0.124065
     18          1           0        3.321973   -0.212722    0.433338
     19          1           0        2.668196   -0.087629   -1.203311
 ---------------------------------------------------------------------
 Rotational constants (GHZ):      2.7887463      1.5596271      1.2159851
 Standard basis: 6-311++G(d,p) (5D, 7F)
 There are   261 symmetry adapted cartesian basis functions of A   symmetry.
 There are   253 symmetry adapted basis functions of A   symmetry.
   253 basis functions,   387 primitive gaussians,   261 cartesian basis functions
    32 alpha electrons       32 beta electrons
       nuclear repulsion energy       405.5229431758 Hartrees.
 NAtoms=   19 NActive=   19 NUniq=   19 SFac= 1.00D+00 NAtFMM=   60 NAOKFM=F Big=F
 Integral buffers will be    131072 words long.
 Raffenetti 2 integral format.
 Two-electron integral symmetry is turned on.
 One-electron integrals computed using PRISM.
 NBasis=   253 RedAO= T EigKep=  8.89D-06  NBF=   253
 NBsUse=   253 1.00D-06 EigRej= -1.00D+00 NBFU=   253
 Initial guess from the checkpoint file:  "Val-S-opt-6-311gdp.chk"
 B after Tr=     0.000000    0.000000    0.000000
         Rot=    0.999991   -0.002953   -0.001314    0.002860 Ang=  -0.49 deg.
 ExpMin= 3.60D-02 ExpMax= 8.59D+03 ExpMxC= 1.30D+03 IAcc=3 IRadAn=         5 AccDes= 0.00D+00
 Harris functional with IExCor=  402 and IRadAn=       5 diagonalized for initial guess.
 HarFok:  IExCor=  402 AccDes= 0.00D+00 IRadAn=         5 IDoV= 1 UseB2=F ITyADJ=14
 ICtDFT=  3500011 ScaDFX=  1.000000  1.000000  1.000000  1.000000
 FoFCou: FMM=F IPFlag=           0 FMFlag=      100000 FMFlg1=           0
         NFxFlg=           0 DoJE=T BraDBF=F KetDBF=T FulRan=T
         wScrn=  0.000000 ICntrl=     500 IOpCl=  0 I1Cent=   200000004 NGrid=           0
         NMat0=    1 NMatS0=      1 NMatT0=    0 NMatD0=    1 NMtDS0=    0 NMtDT0=    0
 Petite list used in FoFCou.
 Requested convergence on RMS density matrix=1.00D-08 within 128 cycles.
 Requested convergence on MAX density matrix=1.00D-06.
 Requested convergence on             energy=1.00D-06.
 No special actions if energy rises.
 SCF Done:  E(RB3LYP) =  -402.502870710     A.U. after   11 cycles
            NFock= 11  Conv=0.20D-08     -V/T= 2.0040
 Calling FoFJK, ICntrl=      2127 FMM=F ISym2X=0 I1Cent= 0 IOpClX= 0 NMat=1 NMatS=1 NMatT=0.
 ***** Axes restored to original set *****
 -------------------------------------------------------------------
 Center     Atomic                   Forces (Hartrees/Bohr)
 Number     Number              X              Y              Z
 -------------------------------------------------------------------
      1        7          -0.002033222    0.000755942    0.000437887
      2        1           0.000593665    0.000048518   -0.000823139
      3        6           0.000442641   -0.001590289    0.000870263
      4        1          -0.000244288    0.000315169    0.000086045
      5        6           0.000582864    0.000446525   -0.000237926
      6        6          -0.001720571   -0.002855627    0.000237469
      7        6          -0.000002300    0.000154569    0.000059563
      8        8           0.001227036    0.001732693   -0.001712960
      9        1          -0.000034272   -0.000045232    0.000120259
     10        1          -0.000083618   -0.000077836   -0.000052816
     11        1           0.000066595   -0.000021152   -0.000065965
     12        1           0.001127849    0.000555662    0.000308581
     13        8          -0.000257751    0.000933063    0.000813143
     14        1           0.000463086   -0.000299227    0.000013036
     15        1          -0.000022259   -0.000035417   -0.000165786
     16        6           0.000100117   -0.000048008    0.000069793
     17        1          -0.000037418    0.000063746   -0.000003721
     18        1          -0.000099998   -0.000061780   -0.000076208
     19        1          -0.000068156    0.000028681    0.000122483
 -------------------------------------------------------------------
 Cartesian Forces:  Max     0.002855627 RMS     0.000755425

 GradGradGradGradGradGradGradGradGradGradGradGradGradGradGradGradGradGrad
 Berny optimization.
 Using GEDIIS/GDIIS optimizer.
 FormGI is forming the generalized inverse of G from B-inverse, IUseBI=4.
 Internal  Forces:  Max     0.002429298 RMS     0.000411321
 Search for a local minimum.
 Step number   3 out of a maximum of  100
 All quantities printed in internal units (Hartrees-Bohrs-Radians)
 Mixed Optimization -- En-DIIS/RFO-DIIS
 Swapping is turned off.
 Update second derivatives using D2CorX and points    1    2    3
 DE= -1.88D-04 DEPred=-1.83D-04 R= 1.02D+00
 TightC=F SS=  1.41D+00  RLast= 1.04D-01 DXNew= 8.4853D-01 3.1224D-01
 Trust test= 1.02D+00 RLast= 1.04D-01 DXMaxT set to 5.05D-01
 ITU=  1  1  0
     Eigenvalues ---    0.00230   0.00231   0.00259   0.00422   0.00760
     Eigenvalues ---    0.01106   0.01961   0.03094   0.03371   0.04522
     Eigenvalues ---    0.04615   0.04890   0.05253   0.05322   0.05446
     Eigenvalues ---    0.05520   0.05562   0.06383   0.15875   0.15978
     Eigenvalues ---    0.16000   0.16000   0.16000   0.16000   0.16000
     Eigenvalues ---    0.16203   0.16650   0.16688   0.17129   0.17254
     Eigenvalues ---    0.18667   0.24185   0.25487   0.26413   0.28453
     Eigenvalues ---    0.28698   0.30092   0.33539   0.33860   0.34019
     Eigenvalues ---    0.34098   0.34169   0.34216   0.34323   0.34524
     Eigenvalues ---    0.35334   0.43798   0.45246   0.49618   0.51717
     Eigenvalues ---    0.95113
 En-DIIS/RFO-DIIS IScMMF=        0 using points:     3    2
 RFO step:  Lambda=-4.82194076D-05.
 DidBck=F Rises=F RFO-DIIS coefs:    1.04289   -0.04289
 Iteration  1 RMS(Cart)=  0.03263223 RMS(Int)=  0.00096408
 Iteration  2 RMS(Cart)=  0.00116611 RMS(Int)=  0.00038581
 Iteration  3 RMS(Cart)=  0.00000052 RMS(Int)=  0.00038581
 Variable       Old X    -DE/DX   Delta X   Delta X   Delta X     New X
                                 (Linear)    (Quad)   (Total)
    R1        1.91778   0.00095   0.00026   0.00744   0.00770   1.92547
    R2        2.75843   0.00137   0.00050   0.01386   0.01436   2.77278
    R3        1.91390   0.00111   0.00024   0.00740   0.00764   1.92154
    R4        2.06654   0.00006   0.00004   0.00099   0.00104   2.06758
    R5        2.93846  -0.00037  -0.00018  -0.00588  -0.00606   2.93240
    R6        2.88880   0.00010   0.00034   0.00784   0.00818   2.89698
    R7        2.90048  -0.00001   0.00000  -0.00068  -0.00068   2.89979
    R8        2.07398   0.00015   0.00000   0.00007   0.00007   2.07406
    R9        2.89754   0.00013  -0.00003  -0.00056  -0.00059   2.89695
   R10        2.27872   0.00243  -0.00028  -0.00599  -0.00626   2.27246
   R11        2.56163   0.00023  -0.00014  -0.00497  -0.00512   2.55651
   R12        2.06845   0.00013   0.00000   0.00007   0.00007   2.06852
   R13        2.06521   0.00012  -0.00001  -0.00013  -0.00014   2.06507
   R14        2.06502   0.00009   0.00002   0.00032   0.00034   2.06536
   R15        1.83250   0.00050   0.00002   0.00005   0.00008   1.83258
   R16        2.05971   0.00006   0.00000  -0.00002  -0.00001   2.05970
   R17        2.06626   0.00014   0.00000   0.00012   0.00012   2.06638
   R18        2.07045   0.00012  -0.00001  -0.00016  -0.00017   2.07028
    A1        1.92503  -0.00045  -0.00032  -0.01476  -0.01550   1.90953
    A2        1.88089  -0.00012  -0.00108  -0.03168  -0.03362   1.84726
    A3        1.94375  -0.00004  -0.00056  -0.01739  -0.01835   1.92540
    A4        1.89409  -0.00011   0.00019   0.00207   0.00225   1.89634
    A5        1.92632  -0.00006  -0.00016  -0.00507  -0.00523   1.92109
    A6        1.94523  -0.00005   0.00014   0.00163   0.00176   1.94699
    A7        1.89107   0.00014  -0.00010   0.00054   0.00045   1.89152
    A8        1.88134   0.00018  -0.00004   0.00264   0.00259   1.88393
    A9        1.92417  -0.00009  -0.00002  -0.00157  -0.00160   1.92257
   A10        1.96836  -0.00002   0.00007   0.00125   0.00132   1.96969
   A11        1.85231   0.00005  -0.00001   0.00112   0.00111   1.85342
   A12        1.92220   0.00000   0.00003   0.00071   0.00075   1.92295
   A13        1.88798  -0.00001  -0.00002  -0.00070  -0.00072   1.88726
   A14        1.93525  -0.00004   0.00001  -0.00090  -0.00090   1.93435
   A15        1.89420   0.00002  -0.00009  -0.00154  -0.00163   1.89257
   A16        2.17851  -0.00035  -0.00029  -0.00719  -0.00941   2.16910
   A17        1.97147  -0.00052   0.00015   0.00136  -0.00044   1.97103
   A18        2.13314   0.00088   0.00014   0.00712   0.00527   2.13840
[...]
     15          1           0       -1.064062    0.077962   -1.410593
     16          6           0       -2.533856    0.225855    0.153929
     17          1           0       -2.629227    1.311414    0.128987
     18          1           0       -3.328991   -0.210024   -0.457472
     19          1           0       -2.688617   -0.107062    1.186354
 ---------------------------------------------------------------------
                    Distance matrix (angstroms):
                    1          2          3          4          5
     1  N    0.000000
     2  H    1.016521   0.000000
     3  C    1.463727   2.045056   0.000000
     4  H    2.084492   2.927041   1.093502   0.000000
     5  C    2.475246   2.777192   1.552485   2.164865   0.000000
     6  C    2.471050   2.602266   1.528985   2.137418   2.528326
     7  C    3.844391   4.136342   2.567774   2.855141   1.535098
     8  O    2.923223   2.606899   2.429115   3.254855   3.161899
     9  H    4.198184   4.699849   2.824854   2.679263   2.183705
    10  H    4.636617   4.850852   3.511041   3.825028   2.168168
    11  H    4.171848   4.299590   2.864162   3.289393   2.198819
    12  H    1.014742   1.634788   2.058723   2.330792   3.364695
    13  O    3.524037   3.857067   2.404950   2.418363   3.365369
    14  H    4.238810   4.402947   3.234204   3.372316   4.116423
    15  H    2.640903   2.525697   2.137850   3.038935   1.097717
    16  C    2.965249   3.458749   2.532392   2.725769   1.533680
    17  H    2.584012   3.061035   2.731593   2.988181   2.179601
    18  H    3.920211   4.248305   3.486268   3.756965   2.171315
    19  H    3.438028   4.145475   2.838021   2.587758   2.176930
                    6          7          8          9         10
     6  C    0.000000
     7  C    2.936630   0.000000
     8  O    1.207280   3.612336   0.000000
     9  H    3.253169   1.094819   4.168863   0.000000
    10  H    3.957443   1.093022   4.489306   1.766357   0.000000
    11  H    2.631946   1.093048   3.094668   1.769012   1.761536
    12  H    2.759490   4.610603   3.229088   4.813697   5.490146
    13  O    1.355326   3.283119   2.246582   3.204561   4.352989
    14  H    1.886861   3.911859   2.292389   3.918928   4.922002
    15  H    2.778414   2.147216   2.978445   3.068959   2.507400
    16  C    3.881979   2.526566   4.584515   2.824516   2.724871
    17  H    4.185772   3.482453   4.789658   3.811288   3.744582
    18  H    4.690410   2.779820   5.271314   3.201346   2.527361
    19  H    4.201738   2.764427   5.108724   2.618111   3.033632
                   11         12         13         14         15
    11  H    0.000000
    12  H    4.867137   0.000000
    13  O    2.882198   3.590890   0.000000
    14  H    3.273223   4.260559   0.970248   0.000000
    15  H    2.484414   3.616409   3.871578   4.458936   0.000000
    16  C    3.492557   3.815452   4.616594   5.468662   2.151720
    17  H    4.344389   3.389579   5.067794   5.921891   2.518224
    18  H    3.761681   4.828959   5.436759   6.230306   2.474122
    19  H    3.800256   4.099244   4.648659   5.567535   3.068803
                   16         17         18         19
    16  C    0.000000
    17  H    1.090026   0.000000
    18  H    1.093637   1.774368   0.000000
    19  H    1.095758   1.770205   1.767157   0.000000
 Stoichiometry    C5H11NO2
 Framework group  C1[X(C5H11NO2)]
 Deg. of freedom    51
 Full point group                 C1      NOp   1
 Largest Abelian subgroup         C1      NOp   1
 Largest concise Abelian subgroup C1      NOp   1
                         Standard orientation:                         
 ---------------------------------------------------------------------
 Center     Atomic      Atomic             Coordinates (Angstroms)
 Number     Number       Type             X           Y           Z
 ---------------------------------------------------------------------
      1          7           0        0.110465    1.963899   -0.134275
      2          1           0       -0.177342    2.162670    0.820173
      3          6           0        0.016537    0.525809   -0.390344
      4          1           0        0.128976    0.359805   -1.465307
      5          6           0        1.155887   -0.227343    0.347798
      6          6           0       -1.344794   -0.026082    0.033909
      7          6           0        1.022230   -1.752471    0.235345
      8          8           0       -1.887024    0.212709    1.085808
      9          1           0        1.037130   -2.074436   -0.810956
     10          1           0        1.857433   -2.240141    0.744570
     11          1           0        0.100487   -2.125925    0.688861
     12          1           0       -0.507508    2.484275   -0.748295
     13          8           0       -1.909093   -0.817812   -0.910356
     14          1           0       -2.757461   -1.128673   -0.556776
     15          1           0        1.069314    0.046031    1.407399
     16          6           0        2.522832    0.239922   -0.167271
     17          1           0        2.614149    1.324886   -0.115582
     18          1           0        3.325746   -0.208038    0.424931
     19          1           0        2.668605   -0.065931   -1.209332
 ---------------------------------------------------------------------
 Rotational constants (GHZ):      2.7966870      1.5502309      1.2168930

 **********************************************************************

            Population analysis using the SCF density.

 **********************************************************************

 Orbital symmetries:
       Occupied  (A) (A) (A) (A) (A) (A) (A) (A) (A) (A) (A) (A)
                 (A) (A) (A) (A) (A) (A) (A) (A) (A) (A) (A) (A)
                 (A) (A) (A) (A) (A) (A) (A) (A)
       Virtual   (A) (A) (A) (A) (A) (A) (A) (A) (A) (A) (A) (A)
                 (A) (A) (A) (A) (A) (A) (A) (A) (A) (A) (A) (A)
                 (A) (A) (A) (A) (A) (A) (A) (A) (A) (A) (A) (A)
                 (A) (A) (A) (A) (A) (A) (A) (A) (A) (A) (A) (A)
                 (A) (A) (A) (A) (A) (A) (A) (A) (A) (A) (A) (A)
                 (A) (A) (A) (A) (A) (A) (A) (A) (A) (A) (A) (A)
                 (A) (A) (A) (A) (A) (A) (A) (A) (A) (A) (A) (A)
                 (A) (A) (A) (A) (A) (A) (A) (A) (A) (A) (A) (A)
                 (A) (A) (A) (A) (A) (A) (A) (A) (A) (A) (A) (A)
                 (A) (A) (A) (A) (A) (A) (A) (A) (A) (A) (A) (A)
                 (A) (A) (A) (A) (A) (A) (A) (A) (A) (A) (A) (A)
                 (A) (A) (A) (A) (A) (A) (A) (A) (A) (A) (A) (A)
                 (A) (A) (A) (A) (A) (A) (A) (A) (A) (A) (A) (A)
                 (A) (A) (A) (A) (A) (A) (A) (A) (A) (A) (A) (A)
                 (A) (A) (A) (A) (A) (A) (A) (A) (A) (A) (A) (A)
                 (A) (A) (A) (A) (A) (A) (A) (A) (A) (A) (A) (A)
                 (A) (A) (A) (A) (A) (A) (A) (A) (A) (A) (A) (A)
                 (A) (A) (A) (A) (A) (A) (A) (A) (A) (A) (A) (A)
                 (A) (A) (A) (A) (A)
 The electronic state is 1-A.
 Alpha  occ. eigenvalues --  -19.18459 -19.12681 -14.30705 -10.31293 -10.22226
 Alpha  occ. eigenvalues --  -10.18706 -10.16489 -10.15676  -1.12447  -1.03515
 Alpha  occ. eigenvalues --   -0.90612  -0.80250  -0.71659  -0.68829  -0.62817
 Alpha  occ. eigenvalues --   -0.57227  -0.52700  -0.49983  -0.49197  -0.48026
 Alpha  occ. eigenvalues --   -0.46109  -0.42738  -0.42633  -0.40116  -0.39477
 Alpha  occ. eigenvalues --   -0.38643  -0.35331  -0.34423  -0.33825  -0.33440
 Alpha  occ. eigenvalues --   -0.30015  -0.25833
 Alpha virt. eigenvalues --   -0.01741  -0.01372   0.00151   0.00293   0.01251
 Alpha virt. eigenvalues --    0.02534   0.03742   0.03893   0.04725   0.05332
 Alpha virt. eigenvalues --    0.06801   0.07186   0.07769   0.08160   0.08726
 Alpha virt. eigenvalues --    0.09563   0.10233   0.10403   0.10645   0.12108
 Alpha virt. eigenvalues --    0.12692   0.13229   0.13312   0.14061   0.14541
 Alpha virt. eigenvalues --    0.14614   0.15191   0.16245   0.16548   0.17156
 Alpha virt. eigenvalues --    0.17642   0.17828   0.18593   0.18984   0.20305
 Alpha virt. eigenvalues --    0.20973   0.21164   0.21653   0.22643   0.22952
 Alpha virt. eigenvalues --    0.23817   0.24305   0.25034   0.25912   0.26088
 Alpha virt. eigenvalues --    0.27332   0.28053   0.28470   0.30395   0.31135
 Alpha virt. eigenvalues --    0.31670   0.31988   0.32513   0.33797   0.34416
 Alpha virt. eigenvalues --    0.35874   0.36523   0.36968   0.37394   0.40042
 Alpha virt. eigenvalues --    0.42199   0.43772   0.45409   0.47655   0.49435
 Alpha virt. eigenvalues --    0.51909   0.53280   0.54288   0.55769   0.58722
 Alpha virt. eigenvalues --    0.58912   0.59512   0.61707   0.63306   0.64951
 Alpha virt. eigenvalues --    0.65970   0.66249   0.68320   0.69221   0.69527
 Alpha virt. eigenvalues --    0.70370   0.71648   0.73512   0.74849   0.75557
 Alpha virt. eigenvalues --    0.77603   0.78486   0.79131   0.83530   0.86324
 Alpha virt. eigenvalues --    0.88028   0.89670   0.94340   0.97890   1.00509
 Alpha virt. eigenvalues --    1.05431   1.06500   1.07972   1.10658   1.12829
 Alpha virt. eigenvalues --    1.15178   1.15926   1.17976   1.20879   1.23429
 Alpha virt. eigenvalues --    1.24470   1.25138   1.28333   1.31400   1.41796
 Alpha virt. eigenvalues --    1.42028   1.42719   1.44605   1.46272   1.47070
 Alpha virt. eigenvalues --    1.49832   1.53755   1.55283   1.56254   1.58255
 Alpha virt. eigenvalues --    1.58810   1.60071   1.61817   1.62677   1.63895
 Alpha virt. eigenvalues --    1.65847   1.67557   1.68289   1.70617   1.73624
 Alpha virt. eigenvalues --    1.74512   1.77581   1.78436   1.80182   1.82148
 Alpha virt. eigenvalues --    1.84149   1.87636   1.91633   1.93638   1.95077
 Alpha virt. eigenvalues --    1.98167   2.00151   2.02977   2.05832   2.07800
 Alpha virt. eigenvalues --    2.11794   2.14143   2.15726   2.19898   2.24673
 Alpha virt. eigenvalues --    2.28860   2.32486   2.35541   2.39610   2.45087
 Alpha virt. eigenvalues --    2.48210   2.49208   2.51354   2.53204   2.53412
 Alpha virt. eigenvalues --    2.55155   2.57828   2.60539   2.61810   2.61975
 Alpha virt. eigenvalues --    2.65210   2.67443   2.70318   2.71305   2.73331
 Alpha virt. eigenvalues --    2.76113   2.76513   2.79417   2.84288   2.86753
 Alpha virt. eigenvalues --    2.88488   2.89773   2.93851   2.96386   2.99284
 Alpha virt. eigenvalues --    2.99496   3.03360   3.04546   3.09829   3.11470
 Alpha virt. eigenvalues --    3.16882   3.18314   3.20802   3.28278   3.37187
 Alpha virt. eigenvalues --    3.43188   3.58854   3.63356   3.65861   3.78155
 Alpha virt. eigenvalues --    3.79093   3.79998   3.83739   3.84241   3.98969
 Alpha virt. eigenvalues --    4.05667   4.10797   4.15785   4.28626   4.32336
 Alpha virt. eigenvalues --    4.72918   4.84327   4.99674   5.08019   5.17733
 Alpha virt. eigenvalues --    5.39375   5.58350   5.84709  23.79293  23.80910
 Alpha virt. eigenvalues --   23.83741  23.97808  23.98210  35.60887  49.86670
 Alpha virt. eigenvalues --   50.01936
          Condensed to atoms (all electrons):
               1          2          3          4          5          6
     1  N    6.717538   0.382798  -0.186331  -0.045695   0.157789  -0.013034
     2  H    0.382798   0.446257   0.004029   0.014725  -0.032904  -0.031277
     3  C   -0.186331   0.004029   8.528046   0.380104  -1.659517  -0.980209
     4  H   -0.045695   0.014725   0.380104   0.558308   0.060621  -0.132543
     5  C    0.157789  -0.032904  -1.659517   0.060621   7.441969   0.214466
     6  C   -0.013034  -0.031277  -0.980209  -0.132543   0.214466   6.558780
     7  C    0.005535   0.004780   0.222220  -0.095144  -0.649845   0.135160
     8  O   -0.052434   0.009899   0.113239   0.003678  -0.115201   0.433875
     9  H   -0.000002  -0.000523  -0.072226   0.009157   0.108891   0.010889
    10  H   -0.000881   0.000053   0.040634  -0.002479  -0.101727  -0.005312
    11  H   -0.010556   0.002061   0.037324  -0.001117  -0.120525  -0.029836
    12  H    0.391570  -0.050222  -0.039608  -0.021826   0.004472   0.016376
    13  O    0.004393  -0.001119   0.076457   0.002602  -0.132528   0.062457
    14  H   -0.003689  -0.000266  -0.069867   0.001981   0.009417   0.085211
    15  H   -0.012473   0.001907  -0.106984   0.026984   0.610922  -0.005316
    16  C   -0.078396   0.005504   0.310083  -0.014978  -0.152302  -0.153730
    17  H    0.009213  -0.000235  -0.057211   0.000043  -0.036503   0.007026
    18  H    0.003932   0.000137   0.044430  -0.001046  -0.118413  -0.006153
    19  H   -0.009886   0.000355  -0.014025   0.007801   0.053059  -0.004300
               7          8          9         10         11         12
     1  N    0.005535  -0.052434  -0.000002  -0.000881  -0.010556   0.391570
     2  H    0.004780   0.009899  -0.000523   0.000053   0.002061  -0.050222
     3  C    0.222220   0.113239  -0.072226   0.040634   0.037324  -0.039608
     4  H   -0.095144   0.003678   0.009157  -0.002479  -0.001117  -0.021826
     5  C   -0.649845  -0.115201   0.108891  -0.101727  -0.120525   0.004472
     6  C    0.135160   0.433875   0.010889  -0.005312  -0.029836   0.016376
     7  C    6.097771   0.011632   0.332623   0.420764   0.468243  -0.000101
     8  O    0.011632   8.016162  -0.000703  -0.000742  -0.005248  -0.001863
     9  H    0.332623  -0.000703   0.556033  -0.033971  -0.047673  -0.000166
    10  H    0.420764  -0.000742  -0.033971   0.560650  -0.024726   0.000080
    11  H    0.468243  -0.005248  -0.047673  -0.024726   0.581741  -0.000681
    12  H   -0.000101  -0.001863  -0.000166   0.000080  -0.000681   0.462337
    13  O   -0.005156  -0.152163   0.000537  -0.001918  -0.004198   0.001311
    14  H   -0.000515   0.000845   0.000190   0.000059  -0.000738  -0.000256
    15  H   -0.150288  -0.004725   0.016994  -0.015215  -0.017317  -0.002361
    16  C   -0.128935   0.004924  -0.034459   0.006612   0.006850   0.000029
    17  H    0.015989   0.000275  -0.002537   0.002156  -0.001965   0.002554
    18  H    0.003772  -0.000143   0.001008   0.000481   0.002436   0.000192
    19  H   -0.014638   0.000153   0.009643   0.001549  -0.001501  -0.000879
              13         14         15         16         17         18
     1  N    0.004393  -0.003689  -0.012473  -0.078396   0.009213   0.003932
     2  H   -0.001119  -0.000266   0.001907   0.005504  -0.000235   0.000137
     3  C    0.076457  -0.069867  -0.106984   0.310083  -0.057211   0.044430
     4  H    0.002602   0.001981   0.026984  -0.014978   0.000043  -0.001046
     5  C   -0.132528   0.009417   0.610922  -0.152302  -0.036503  -0.118413
     6  C    0.062457   0.085211  -0.005316  -0.153730   0.007026  -0.006153
     7  C   -0.005156  -0.000515  -0.150288  -0.128935   0.015989   0.003772
     8  O   -0.152163   0.000845  -0.004725   0.004924   0.000275  -0.000143
     9  H    0.000537   0.000190   0.016994  -0.034459  -0.002537   0.001008
    10  H   -0.001918   0.000059  -0.015215   0.006612   0.002156   0.000481
    11  H   -0.004198  -0.000738  -0.017317   0.006850  -0.001965   0.002436
    12  H    0.001311  -0.000256  -0.002361   0.000029   0.002554   0.000192
    13  O    8.019160   0.233549   0.004718   0.007079   0.000440   0.000394
    14  H    0.233549   0.470462   0.000724  -0.002518  -0.000055  -0.000189
    15  H    0.004718   0.000724   0.578382  -0.093948  -0.005699  -0.015835
    16  C    0.007079  -0.002518  -0.093948   5.647091   0.422361   0.431565
    17  H    0.000440  -0.000055  -0.005699   0.422361   0.521881  -0.022232
    18  H    0.000394  -0.000189  -0.015835   0.431565  -0.022232   0.578510
    19  H   -0.000080   0.000090   0.010678   0.334022  -0.040708  -0.038857
              19
     1  N   -0.009886
     2  H    0.000355
     3  C   -0.014025
     4  H    0.007801
     5  C    0.053059
     6  C   -0.004300
     7  C   -0.014638
     8  O    0.000153
     9  H    0.009643
    10  H    0.001549
    11  H   -0.001501
    12  H   -0.000879
    13  O   -0.000080
    14  H    0.000090
    15  H    0.010678
    16  C    0.334022
    17  H   -0.040708
    18  H   -0.038857
    19  H    0.579963
 Mulliken charges:
               1
     1  N   -0.259392
     2  H    0.244042
     3  C   -0.570588
     4  H    0.248826
     5  C    0.457859
     6  C   -0.162529
     7  C   -0.673867
     8  O   -0.261459
     9  H    0.146295
    10  H    0.153933
    11  H    0.167429
    12  H    0.239041
    13  O   -0.115936
    14  H    0.275565
    15  H    0.178852
    16  C   -0.516854
    17  H    0.185208
    18  H    0.136011
    19  H    0.127563
 Sum of Mulliken charges =   0.00000
 Mulliken charges with hydrogens summed into heavy atoms:
               1
     1  N    0.223692
     3  C   -0.321762
     5  C    0.636711
     6  C   -0.162529
     7  C   -0.206210
     8  O   -0.261459
    13  O    0.159629
    16  C   -0.068071
 Electronic spatial extent (au):  <R**2>=           1070.7066
 Charge=              0.0000 electrons
 Dipole moment (field-independent basis, Debye):
    X=             -0.3308    Y=             -0.6284    Z=             -1.0509  Tot=              1.2683
 Quadrupole moment (field-independent basis, Debye-Ang):
   XX=            -49.2717   YY=            -49.0772   ZZ=            -52.7840
   XY=             -0.4937   XZ=              4.2565   YZ=             -1.0167
 Traceless Quadrupole moment (field-independent basis, Debye-Ang):
   XX=              1.1060   YY=              1.3004   ZZ=             -2.4064
   XY=             -0.4937   XZ=              4.2565   YZ=             -1.0167
 Octapole moment (field-independent basis, Debye-Ang**2):
  XXX=            -30.1205  YYY=              3.6487  ZZZ=             -2.3828  XYY=            -17.7940
  XXY=            -13.2380  XXZ=             -7.9108  XZZ=              3.4564  YZZ=              3.8183
  YYZ=              1.5386  XYZ=              2.6179
 Hexadecapole moment (field-independent basis, Debye-Ang**3):
 XXXX=           -745.6420 YYYY=           -430.2615 ZZZZ=           -175.7078 XXXY=             38.1768
 XXXZ=             34.7147 YYYX=            -10.5362 YYYZ=              3.2884 ZZZX=              3.3856
 ZZZY=              1.8859 XXYY=           -193.7687 XXZZ=           -176.1117 YYZZ=            -95.1448
 XXYZ=             -0.4100 YYXZ=              6.3326 ZZXY=             -1.9542
 N-N= 4.053471629846D+02 E-N=-1.751218643185D+03  KE= 4.008661614668D+02
 1\1\GINC-KALI\FOpt\RB3LYP\6-311++G(d,p)\C5H11N1O2\ROOT\28-Mar-2016\0\\
 # opt b3lyp/6-311++g(d,p) geom=connectivity\\Val-S-opt-6-311++g(d,p)\\
 0,1\N,-0.1285641044,1.9596509732,0.1889248454\H,0.1678092476,2.1838480
 097,-0.7572320488\C,-0.0311111657,0.5158788561,0.4091993301\H,-0.15345
 39405,0.3220570091,1.4784098532\C,-1.1599369811,-0.2226993342,-0.35921
 66684\C,1.336653313,-0.0196131011,-0.0153760695\C,-1.0209729057,-1.749
 6589236,-0.2843248177\O,1.8882287586,0.2480842807,-1.0553893898\H,-1.0
 448432289,-2.0982720372,0.7532338091\H,-1.8490477925,-2.2274805827,-0.
 8141130678\H,-0.0932340901,-2.1077672942,-0.7379916366\H,0.481120697,2
 .4666336289,0.8221349413\O,1.894935622,-0.8329385804,0.9139948334\H,2.
 7480538723,-1.1313150987,0.5610898921\H,-1.064062049,0.077962045,-1.41
 05931875\C,-2.5338561386,0.2258549824,0.1539290798\H,-2.6292271906,1.3
 114144822,0.1289871948\H,-3.3289909106,-0.2100244959,-0.4574721937\H,-
 2.6886170129,-0.1070618191,1.1863543005\\Version=ES64L-G09RevD.01\Stat
 e=1-A\HF=-402.5029506\RMSD=4.283e-09\RMSF=1.836e-05\Dipole=0.1270933,-
 0.2571749,0.4083088\Quadrupole=0.756504,0.9287303,-1.6852343,0.2773681
 ,3.1946055,0.8405632\PG=C01 [X(C5H11N1O2)]\\@


 Sometimes the fool who rushes in gets the job done.
                                    -- Al Bernstein
 Job cpu time:       0 days  0 hours 49 minutes 42.5 seconds.
 File lengths (MBytes):  RWF=     40 Int=      0 D2E=      0 Chk=      5 Scr=      1
 Normal termination of Gaussian 09 at Mon Mar 28 16:39:02 2016.
