 Entering Gaussian System, Link 0=g09
 Input=Ala-S-opt-freq-p3-6-31g.com
 Output=Ala-S-opt-freq-p3-6-31g.log
 Initial command:
 /usr/local/gau/g09/l1.exe "/tmp/Gau-3296.inp" -scrdir="/tmp/"
 Entering Link 1 = /usr/local/gau/g09/l1.exe PID=      3298.
  
 Copyright (c) 1988,1990,1992,1993,1995,1998,2003,2009,2013,
            Gaussian, Inc.  All Rights Reserved.
  
 This is part of the Gaussian(R) 09 program.  It is based on
 the Gaussian(R) 03 system (copyright 2003, Gaussian, Inc.),
 the Gaussian(R) 98 system (copyright 1998, Gaussian, Inc.),
 the Gaussian(R) 94 system (copyright 1995, Gaussian, Inc.),
 the Gaussian 92(TM) system (copyright 1992, Gaussian, Inc.),
 the Gaussian 90(TM) system (copyright 1990, Gaussian, Inc.),
 the Gaussian 88(TM) system (copyright 1988, Gaussian, Inc.),
 the Gaussian 86(TM) system (copyright 1986, Carnegie Mellon
 University), and the Gaussian 82(TM) system (copyright 1983,
 Carnegie Mellon University). Gaussian is a federally registered
 trademark of Gaussian, Inc.
  
 This software contains proprietary and confidential information,
 including trade secrets, belonging to Gaussian, Inc.
  
 This software is provided under written license and may be
 used, copied, transmitted, or stored only in accord with that
 written license.
  
 The following legend is applicable only to US Government
 contracts under FAR:
  
                    RESTRICTED RIGHTS LEGEND
  
 Use, reproduction and disclosure by the US Government is
 subject to restrictions as set forth in subparagraphs (a)
 and (c) of the Commercial Computer Software - Restricted
 Rights clause in FAR 52.227-19.
  
 Gaussian, Inc.
 340 Quinnipiac St., Bldg. 40, Wallingford CT 06492
  
  
 ---------------------------------------------------------------
 Warning -- This program may not be used in any manner that
 competes with the business of Gaussian, Inc. or will provide
 assistance to any competitor of Gaussian, Inc.  The licensee
 of this program is prohibited from giving any competitor of
 Gaussian, Inc. access to this program.  By using this program,
 the user acknowledges that Gaussian, Inc. is engaged in the
 business of creating and licensing software in the field of
 computational chemistry and represents and warrants to the
 licensee that it is not a competitor of Gaussian, Inc. and that
 it will not use this program in any manner prohibited above.
 ---------------------------------------------------------------
  

 Cite this work as:
 Gaussian 09, Revision D.01,
 M. J. Frisch, G. W. Trucks, H. B. Schlegel, G. E. Scuseria, 
 M. A. Robb, J. R. Cheeseman, G. Scalmani, V. Barone, B. Mennucci, 
 G. A. Petersson, H. Nakatsuji, M. Caricato, X. Li, H. P. Hratchian, 
 A. F. Izmaylov, J. Bloino, G. Zheng, J. L. Sonnenberg, M. Hada, 
 M. Ehara, K. Toyota, R. Fukuda, J. Hasegawa, M. Ishida, T. Nakajima, 
 Y. Honda, O. Kitao, H. Nakai, T. Vreven, J. A. Montgomery, Jr., 
 J. E. Peralta, F. Ogliaro, M. Bearpark, J. J. Heyd, E. Brothers, 
 K. N. Kudin, V. N. Staroverov, T. Keith, R. Kobayashi, J. Normand, 
 K. Raghavachari, A. Rendell, J. C. Burant, S. S. Iyengar, J. Tomasi, 
 M. Cossi, N. Rega, J. M. Millam, M. Klene, J. E. Knox, J. B. Cross, 
 V. Bakken, C. Adamo, J. Jaramillo, R. Gomperts, R. E. Stratmann, 
 O. Yazyev, A. J. Austin, R. Cammi, C. Pomelli, J. W. Ochterski, 
 R. L. Martin, K. Morokuma, V. G. Zakrzewski, G. A. Voth, 
 P. Salvador, J. J. Dannenberg, S. Dapprich, A. D. Daniels, 
 O. Farkas, J. B. Foresman, J. V. Ortiz, J. Cioslowski, 
 and D. J. Fox, Gaussian, Inc., Wallingford CT, 2013.
 
 ******************************************
 Gaussian 09:  ES64L-G09RevD.01 24-Apr-2013
                10-Apr-2016 
 ******************************************
 %chk=Ala-S-opt-freq-p3-6-31g.chk
 -----------------------
 # opt freq rb3lyp/6-31g
 -----------------------
 1/14=-1,18=20,19=15,26=3,38=1/1,3;
 2/9=110,12=2,17=6,18=5,40=1/2;
 3/5=1,6=6,11=2,16=1,25=1,30=1,71=1,74=-5,116=1/1,2,3;
 4//1;
 5/5=2,38=5/2;
 6/7=2,8=2,9=2,10=2,28=1/1;
 7//1,2,3,16;
 1/14=-1,18=20,19=15,26=3/3(2);
 2/9=110/2;
 99//99;
 2/9=110/2;
 3/5=1,6=6,11=2,16=1,25=1,30=1,71=1,74=-5,116=1/1,2,3;
 4/5=5,16=3,69=1/1;
 5/5=2,38=5/2;
 7//1,2,3,16;
 1/14=-1,18=20,19=15,26=3/3(-5);
 2/9=110/2;
 6/7=2,8=2,9=2,10=2,19=2,28=1/1;
 99/9=1/99;
 -----------------------
 Ala-S-opt-freq-p3-6-31g
 -----------------------
 Symbolic Z-matrix:
 Charge =  0 Multiplicity = 1
 N                     1.1517   -1.34806   0.1046 
 H                     2.12871  -1.57251   0.02368 
 C                     0.68157  -0.07728  -0.01073 
 H                    -2.23091   1.24518   0.10569 
 C                     1.63694   1.07354  -0.05068 
 C                    -0.7015    0.07098  -0.14021 
 H                     2.15022   1.17517   0.91515 
 H                     2.40927   0.93585  -0.82039 
 H                     1.10229   2.00254  -0.2495 
 O                    -1.5763   -1.10078   0.02237 
 H                     0.46671  -2.07941   0.25044 
 O                    -1.25874   1.33503   0.14764 
 H                    -0.14018  -0.92981  -1.18942 
 
 Add virtual bond connecting atoms H13        and C3         Dist= 3.16D+00.
 Add virtual bond connecting atoms H13        and C6         Dist= 2.94D+00.

 GradGradGradGradGradGradGradGradGradGradGradGradGradGradGradGradGradGrad
 Berny optimization.
 Initialization pass.
                           ----------------------------
                           !    Initial Parameters    !
                           ! (Angstroms and Degrees)  !
 --------------------------                            --------------------------
 ! Name  Definition              Value          Derivative Info.                !
 --------------------------------------------------------------------------------
 ! R1    R(1,2)                  1.0057         estimate D2E/DX2                !
 ! R2    R(1,3)                  1.3599         estimate D2E/DX2                !
 ! R3    R(1,11)                 1.0126         estimate D2E/DX2                !
 ! R4    R(3,5)                  1.4962         estimate D2E/DX2                !
 ! R5    R(3,6)                  1.397          estimate D2E/DX2                !
 ! R6    R(3,13)                 1.6707         estimate D2E/DX2                !
 ! R7    R(4,12)                 0.9772         estimate D2E/DX2                !
 ! R8    R(5,7)                  1.0985         estimate D2E/DX2                !
 ! R9    R(5,8)                  1.099          estimate D2E/DX2                !
 ! R10   R(5,9)                  1.0901         estimate D2E/DX2                !
 ! R11   R(6,10)                 1.4713         estimate D2E/DX2                !
 ! R12   R(6,12)                 1.4111         estimate D2E/DX2                !
 ! R13   R(6,13)                 1.5548         estimate D2E/DX2                !
 ! A1    A(2,1,3)              122.5194         estimate D2E/DX2                !
 ! A2    A(2,1,11)             120.5017         estimate D2E/DX2                !
 ! A3    A(3,1,11)             116.9543         estimate D2E/DX2                !
 ! A4    A(1,3,5)              120.0185         estimate D2E/DX2                !
 ! A5    A(1,3,6)              116.6992         estimate D2E/DX2                !
 ! A6    A(1,3,13)              75.7016         estimate D2E/DX2                !
 ! A7    A(5,3,6)              123.233          estimate D2E/DX2                !
 ! A8    A(5,3,13)             133.4467         estimate D2E/DX2                !
 ! A9    A(3,5,7)              110.2455         estimate D2E/DX2                !
 ! A10   A(3,5,8)              111.78           estimate D2E/DX2                !
 ! A11   A(3,5,9)              110.3142         estimate D2E/DX2                !
 ! A12   A(7,5,8)              107.3977         estimate D2E/DX2                !
 ! A13   A(7,5,9)              108.1001         estimate D2E/DX2                !
 ! A14   A(8,5,9)              108.8861         estimate D2E/DX2                !
 ! A15   A(3,6,10)             119.5964         estimate D2E/DX2                !
 ! A16   A(3,6,12)             117.8473         estimate D2E/DX2                !
 ! A17   A(10,6,12)            117.1346         estimate D2E/DX2                !
 ! A18   A(10,6,13)             77.0913         estimate D2E/DX2                !
 ! A19   A(12,6,13)            148.9594         estimate D2E/DX2                !
 ! A20   A(4,12,6)             107.5619         estimate D2E/DX2                !
 ! D1    D(2,1,3,5)             -9.6721         estimate D2E/DX2                !
 ! D2    D(2,1,3,6)            167.8566         estimate D2E/DX2                !
 ! D3    D(2,1,3,13)           122.5761         estimate D2E/DX2                !
 ! D4    D(11,1,3,5)           172.1279         estimate D2E/DX2                !
 ! D5    D(11,1,3,6)           -10.3433         estimate D2E/DX2                !
 ! D6    D(11,1,3,13)          -55.6239         estimate D2E/DX2                !
 ! D7    D(1,3,5,7)            -66.5894         estimate D2E/DX2                !
 ! D8    D(1,3,5,8)             52.7882         estimate D2E/DX2                !
 ! D9    D(1,3,5,9)            174.094          estimate D2E/DX2                !
 ! D10   D(6,3,5,7)            116.0501         estimate D2E/DX2                !
 ! D11   D(6,3,5,8)           -124.5723         estimate D2E/DX2                !
 ! D12   D(6,3,5,9)             -3.2665         estimate D2E/DX2                !
 ! D13   D(13,3,5,7)          -165.4713         estimate D2E/DX2                !
 ! D14   D(13,3,5,8)           -46.0938         estimate D2E/DX2                !
 ! D15   D(13,3,5,9)            75.212          estimate D2E/DX2                !
 ! D16   D(1,3,6,10)             7.6176         estimate D2E/DX2                !
 ! D17   D(1,3,6,12)           160.9065         estimate D2E/DX2                !
 ! D18   D(5,3,6,10)          -174.9406         estimate D2E/DX2                !
 ! D19   D(5,3,6,12)           -21.6517         estimate D2E/DX2                !
 ! D20   D(3,6,12,4)          -173.8854         estimate D2E/DX2                !
 ! D21   D(10,6,12,4)          -19.9371         estimate D2E/DX2                !
 ! D22   D(13,6,12,4)           91.4543         estimate D2E/DX2                !
 --------------------------------------------------------------------------------
 Trust Radius=3.00D-01 FncErr=1.00D-07 GrdErr=1.00D-06
 Number of steps in this run=     65 maximum allowed number of steps=    100.
 GradGradGradGradGradGradGradGradGradGradGradGradGradGradGradGradGradGrad

                          Input orientation:                          
 ---------------------------------------------------------------------
 Center     Atomic      Atomic             Coordinates (Angstroms)
 Number     Number       Type             X           Y           Z
 ---------------------------------------------------------------------
      1          7           0        1.151704   -1.348063    0.104595
      2          1           0        2.128713   -1.572512    0.023682
      3          6           0        0.681570   -0.077281   -0.010726
      4          1           0       -2.230906    1.245177    0.105687
      5          6           0        1.636937    1.073541   -0.050683
      6          6           0       -0.701502    0.070975   -0.140205
      7          1           0        2.150220    1.175173    0.915149
      8          1           0        2.409272    0.935847   -0.820389
      9          1           0        1.102290    2.002536   -0.249496
     10          8           0       -1.576303   -1.100781    0.022368
     11          1           0        0.466709   -2.079409    0.250442
     12          8           0       -1.258741    1.335029    0.147638
     13          1           0       -0.140176   -0.929806   -1.189421
 ---------------------------------------------------------------------
                    Distance matrix (angstroms):
                    1          2          3          4          5
     1  N    0.000000
     2  H    1.005719   0.000000
     3  C    1.359857   2.081135   0.000000
     4  H    4.262270   5.191568   3.200775   0.000000
     5  C    2.474617   2.692391   1.496233   3.874806   0.000000
     6  C    2.346906   3.276893   1.397009   1.943782   2.545869
     7  H    2.832093   2.888763   2.140752   4.455827   1.098463
     8  H    2.766463   2.661397   2.160309   4.741788   1.099049
     9  H    3.369620   3.729496   2.135335   3.436560   1.090140
    10  O    2.740425   3.734926   2.479241   2.436999   3.880454
    11  H    1.012599   1.752319   2.030490   4.283801   3.376567
    12  O    3.607088   4.465871   2.405100   0.977209   2.914217
    13  H    1.875732   2.651895   1.670745   3.283140   2.910027
                    6          7          8          9         10
     6  C    0.000000
     7  H    3.235018   0.000000
     8  H    3.299632   1.771010   0.000000
     9  H    2.645097   1.771746   1.780996   0.000000
    10  O    1.471298   4.456905   4.554438   4.108448   0.000000
    11  H    2.478200   3.724023   3.743260   4.161271   2.276758
    12  O    1.411099   3.497948   3.814543   2.485508   2.459616
    13  H    1.554832   3.755805   3.180650   3.320514   1.886829
                   11         12         13
    11  H    0.000000
    12  O    3.827027   0.000000
    13  H    1.939871   2.858040   0.000000
 Stoichiometry    C3H7NO2
 Framework group  C1[X(C3H7NO2)]
 Deg. of freedom    33
 Full point group                 C1      NOp   1
 Largest Abelian subgroup         C1      NOp   1
 Largest concise Abelian subgroup C1      NOp   1
                         Standard orientation:                         
 ---------------------------------------------------------------------
 Center     Atomic      Atomic             Coordinates (Angstroms)
 Number     Number       Type             X           Y           Z
 ---------------------------------------------------------------------
      1          7           0        1.154449    1.317986   -0.132788
      2          1           0        2.136395    1.525016   -0.066522
      3          6           0        0.662591    0.057154   -0.000158
      4          1           0       -2.274975   -1.212169   -0.067146
      5          6           0        1.597087   -1.110752    0.037597
      6          6           0       -0.721156   -0.064380    0.148528
      7          1           0        2.095708   -1.230162   -0.933866
      8          1           0        2.381848   -0.980750    0.795988
      9          1           0        1.048109   -2.027957    0.251522
     10          8           0       -1.576329    1.121912   -0.013056
     11          1           0        0.481158    2.060593   -0.276212
     12          8           0       -1.305259   -1.320342   -0.120888
     13          1           0       -0.127823    0.934837    1.181497
 ---------------------------------------------------------------------
 Rotational constants (GHZ):      4.7373764      3.3126609      2.0088142
 Standard basis: 6-31G (6D, 7F)
 There are    68 symmetry adapted cartesian basis functions of A   symmetry.
 There are    68 symmetry adapted basis functions of A   symmetry.
    68 basis functions,   160 primitive gaussians,    68 cartesian basis functions
    24 alpha electrons       24 beta electrons
       nuclear repulsion energy       244.5382621330 Hartrees.
 NAtoms=   13 NActive=   13 NUniq=   13 SFac= 1.00D+00 NAtFMM=   60 NAOKFM=F Big=F
 Integral buffers will be    131072 words long.
 Raffenetti 2 integral format.
 Two-electron integral symmetry is turned on.
 One-electron integrals computed using PRISM.
 NBasis=    68 RedAO= T EigKep=  3.37D-03  NBF=    68
 NBsUse=    68 1.00D-06 EigRej= -1.00D+00 NBFU=    68
 ExpMin= 1.61D-01 ExpMax= 5.48D+03 ExpMxC= 8.25D+02 IAcc=1 IRadAn=         1 AccDes= 0.00D+00
 Harris functional with IExCor=  402 and IRadAn=       1 diagonalized for initial guess.
 HarFok:  IExCor=  402 AccDes= 0.00D+00 IRadAn=         1 IDoV= 1 UseB2=F ITyADJ=14
 ICtDFT=  3500011 ScaDFX=  1.000000  1.000000  1.000000  1.000000
 FoFCou: FMM=F IPFlag=           0 FMFlag=      100000 FMFlg1=           0
         NFxFlg=           0 DoJE=T BraDBF=F KetDBF=T FulRan=T
         wScrn=  0.000000 ICntrl=     500 IOpCl=  0 I1Cent=   200000004 NGrid=           0
         NMat0=    1 NMatS0=      1 NMatT0=    0 NMatD0=    1 NMtDS0=    0 NMtDT0=    0
 Petite list used in FoFCou.
 Keep R1 ints in memory in canonical form, NReq=3676491.
 Requested convergence on RMS density matrix=1.00D-08 within 128 cycles.
 Requested convergence on MAX density matrix=1.00D-06.
 Requested convergence on             energy=1.00D-06.
 No special actions if energy rises.
 Integral accuracy reduced to 1.0D-05 until final iterations.
 EnCoef did     2 forward-backward iterations
 EnCoef did     2 forward-backward iterations
 Initial convergence to 1.0D-05 achieved.  Increase integral accuracy.
 SCF Done:  E(RB3LYP) =  -323.454520785     A.U. after   19 cycles
            NFock= 19  Conv=0.38D-08     -V/T= 2.0061

 **********************************************************************

            Population analysis using the SCF density.

 **********************************************************************

 Orbital symmetries:
       Occupied  (A) (A) (A) (A) (A) (A) (A) (A) (A) (A) (A) (A)
                 (A) (A) (A) (A) (A) (A) (A) (A) (A) (A) (A) (A)
       Virtual   (A) (A) (A) (A) (A) (A) (A) (A) (A) (A) (A) (A)
                 (A) (A) (A) (A) (A) (A) (A) (A) (A) (A) (A) (A)
                 (A) (A) (A) (A) (A) (A) (A) (A) (A) (A) (A) (A)
                 (A) (A) (A) (A) (A) (A) (A) (A)
 The electronic state is 1-A.
 Alpha  occ. eigenvalues --  -19.17895 -19.08399 -14.34580 -10.30249 -10.27260
 Alpha  occ. eigenvalues --  -10.20469  -1.06194  -0.96171  -0.88861  -0.78219
 Alpha  occ. eigenvalues --   -0.70747  -0.59648  -0.55695  -0.50510  -0.47669
 Alpha  occ. eigenvalues --   -0.45111  -0.42783  -0.40927  -0.40709  -0.34717
 Alpha  occ. eigenvalues --   -0.33418  -0.26502  -0.23021  -0.17292
 Alpha virt. eigenvalues --   -0.06279   0.02284   0.07767   0.08425   0.11321
 Alpha virt. eigenvalues --    0.13742   0.15684   0.16492   0.19752   0.22350
 Alpha virt. eigenvalues --    0.24066   0.34657   0.37736   0.52781   0.53324
 Alpha virt. eigenvalues --    0.55194   0.58935   0.62373   0.63535   0.67757
 Alpha virt. eigenvalues --    0.70459   0.72201   0.75712   0.76803   0.81890
 Alpha virt. eigenvalues --    0.84255   0.87961   0.89464   0.90868   0.92688
 Alpha virt. eigenvalues --    0.94799   0.97962   1.00282   1.04993   1.06211
 Alpha virt. eigenvalues --    1.15157   1.18066   1.24356   1.25463   1.32960
 Alpha virt. eigenvalues --    1.44884   1.57946   1.78586   1.89337
          Condensed to atoms (all electrons):
               1          2          3          4          5          6
     1  N    7.212680   0.326824   0.244638  -0.000098  -0.075426  -0.123236
     2  H    0.326824   0.398122  -0.035865   0.000001  -0.004530   0.008285
     3  C    0.244638  -0.035865   5.469995   0.013033   0.265872   0.124340
     4  H   -0.000098   0.000001   0.013033   0.374379  -0.000484  -0.018796
     5  C   -0.075426  -0.004530   0.265872  -0.000484   5.174534  -0.007161
     6  C   -0.123236   0.008285   0.124340  -0.018796  -0.007161   5.073275
     7  H   -0.001123   0.000058  -0.039879   0.000004   0.368730   0.000699
     8  H    0.001563   0.002487  -0.033457  -0.000001   0.361983   0.000911
     9  H    0.003650  -0.000020  -0.030663  -0.000109   0.373626  -0.002322
    10  O   -0.006121   0.000755  -0.109684   0.006840   0.002976   0.297281
    11  H    0.283865  -0.015338  -0.039843  -0.000066   0.005375   0.000582
    12  O    0.002475  -0.000019  -0.097459   0.233124  -0.001591   0.168854
    13  H   -0.108676  -0.001397   0.007335  -0.001259  -0.000452   0.185782
               7          8          9         10         11         12
     1  N   -0.001123   0.001563   0.003650  -0.006121   0.283865   0.002475
     2  H    0.000058   0.002487  -0.000020   0.000755  -0.015338  -0.000019
     3  C   -0.039879  -0.033457  -0.030663  -0.109684  -0.039843  -0.097459
     4  H    0.000004  -0.000001  -0.000109   0.006840  -0.000066   0.233124
     5  C    0.368730   0.361983   0.373626   0.002976   0.005375  -0.001591
     6  C    0.000699   0.000911  -0.002322   0.297281   0.000582   0.168854
     7  H    0.546951  -0.033736  -0.021555  -0.000035  -0.000047   0.000172
     8  H   -0.033736   0.571303  -0.025697   0.000004  -0.000149   0.000239
     9  H   -0.021555  -0.025697   0.497585   0.000071  -0.000156   0.006311
    10  O   -0.000035   0.000004   0.000071   8.425414   0.034296  -0.069420
    11  H   -0.000047  -0.000149  -0.000156   0.034296   0.369379   0.000725
    12  O    0.000172   0.000239   0.006311  -0.069420   0.000725   8.343205
    13  H    0.000925  -0.003219   0.000170  -0.009125   0.015436   0.004380
              13
     1  N   -0.108676
     2  H   -0.001397
     3  C    0.007335
     4  H   -0.001259
     5  C   -0.000452
     6  C    0.185782
     7  H    0.000925
     8  H   -0.003219
     9  H    0.000170
    10  O   -0.009125
    11  H    0.015436
    12  O    0.004380
    13  H    0.670254
 Mulliken charges:
               1
     1  N   -0.761014
     2  H    0.320637
     3  C    0.261637
     4  H    0.393432
     5  C   -0.463451
     6  C    0.291507
     7  H    0.178836
     8  H    0.157767
     9  H    0.199109
    10  O   -0.573251
    11  H    0.345941
    12  O   -0.590994
    13  H    0.239844
 Sum of Mulliken charges =   0.00000
 Mulliken charges with hydrogens summed into heavy atoms:
               1
     1  N   -0.094435
     3  C    0.261637
     5  C    0.072261
     6  C    0.531351
    10  O   -0.573251
    12  O   -0.197562
 Electronic spatial extent (au):  <R**2>=            606.1171
 Charge=              0.0000 electrons
 Dipole moment (field-independent basis, Debye):
    X=              3.9532    Y=             -0.8713    Z=              0.8136  Tot=              4.1291
 Quadrupole moment (field-independent basis, Debye-Ang):
   XX=            -32.1740   YY=            -36.7278   ZZ=            -37.3676
   XY=              7.0077   XZ=             -0.0148   YZ=              0.1942
 Traceless Quadrupole moment (field-independent basis, Debye-Ang):
   XX=              3.2491   YY=             -1.3047   ZZ=             -1.9444
   XY=              7.0077   XZ=             -0.0148   YZ=              0.1942
 Octapole moment (field-independent basis, Debye-Ang**2):
  XXX=             -1.0573  YYY=              8.5750  ZZZ=             -1.0534  XYY=              8.5078
  XXY=            -12.3673  XXZ=             -0.9137  XZZ=             -1.7628  YZZ=             -0.3945
  YYZ=             -0.3175  XYZ=              0.6787
 Hexadecapole moment (field-independent basis, Debye-Ang**3):
 XXXX=           -343.5518 YYYY=           -270.0913 ZZZZ=            -50.6104 XXXY=             57.1541
 XXXZ=              3.2787 YYYX=             20.1156 YYYZ=             -4.3538 ZZZX=              0.7881
 ZZZY=              1.9850 XXYY=           -106.2812 XXZZ=            -76.3453 YYZZ=            -57.8112
 XXYZ=              0.5211 YYXZ=             -0.5082 ZZXY=              0.0266
 N-N= 2.445382621330D+02 E-N=-1.246627059125D+03  KE= 3.215017210658D+02
 Calling FoFJK, ICntrl=      2127 FMM=F ISym2X=0 I1Cent= 0 IOpClX= 0 NMat=1 NMatS=1 NMatT=0.
 ***** Axes restored to original set *****
 -------------------------------------------------------------------
 Center     Atomic                   Forces (Hartrees/Bohr)
 Number     Number              X              Y              Z
 -------------------------------------------------------------------
      1        7           0.029388473   -0.032404608    0.030532281
      2        1          -0.001869360    0.001243892    0.000382901
      3        6           0.009420682    0.012021308   -0.022647422
      4        1          -0.001892474   -0.001930395   -0.001356361
      5        6           0.000158463    0.000216219   -0.003596011
      6        6          -0.062614934   -0.068882724    0.020139650
      7        1          -0.000783783   -0.001617261    0.000654534
      8        1          -0.000122724    0.000045555    0.000968662
      9        1           0.000244082    0.000252807   -0.000044904
     10        8           0.043162270    0.056131478   -0.012567696
     11        1           0.002113527   -0.000670626    0.004473246
     12        8           0.012642068   -0.016570721   -0.016212713
     13        1          -0.029846292    0.052165076   -0.000726168
 -------------------------------------------------------------------
 Cartesian Forces:  Max     0.068882724 RMS     0.023859447

 GradGradGradGradGradGradGradGradGradGradGradGradGradGradGradGradGradGrad
 Berny optimization.
 FormGI is forming the generalized inverse of G from B-inverse, IUseBI=4.
 Internal  Forces:  Max     0.071756231 RMS     0.016094966
 Search for a local minimum.
 Step number   1 out of a maximum of   65
 All quantities printed in internal units (Hartrees-Bohrs-Radians)
 Mixed Optimization -- RFO/linear search
 Second derivative matrix not updated -- first step.
 ITU=  0
     Eigenvalues ---    0.00816   0.01545   0.02223   0.02225   0.02273
     Eigenvalues ---    0.03499   0.04342   0.05086   0.05771   0.05953
     Eigenvalues ---    0.08051   0.10824   0.15778   0.16000   0.16000
     Eigenvalues ---    0.16000   0.16000   0.16000   0.16000   0.19155
     Eigenvalues ---    0.22681   0.23034   0.32776   0.33788   0.33853
     Eigenvalues ---    0.34796   0.35585   0.43424   0.43829   0.45540
     Eigenvalues ---    0.46697   0.51931   0.52976
 RFO step:  Lambda=-5.56472565D-02 EMin= 8.15774303D-03
 Linear search not attempted -- first point.
 Maximum step size (   0.300) exceeded in Quadratic search.
    -- Step size scaled by   0.690
 Iteration  1 RMS(Cart)=  0.07149896 RMS(Int)=  0.00500312
 Iteration  2 RMS(Cart)=  0.00359156 RMS(Int)=  0.00146731
 Iteration  3 RMS(Cart)=  0.00001243 RMS(Int)=  0.00146726
 Iteration  4 RMS(Cart)=  0.00000006 RMS(Int)=  0.00146726
 Variable       Old X    -DE/DX   Delta X   Delta X   Delta X     New X
                                 (Linear)    (Quad)   (Total)
    R1        1.90053  -0.00213   0.00000  -0.00281  -0.00281   1.89773
    R2        2.56976   0.04299   0.00000   0.05071   0.05071   2.62047
    R3        1.91353  -0.00030   0.00000  -0.00041  -0.00041   1.91313
    R4        2.82747  -0.00112   0.00000  -0.00201  -0.00201   2.82546
    R5        2.63996   0.01968   0.00000   0.03008   0.02845   2.66841
    R6        3.15725   0.00710   0.00000   0.03218   0.03360   3.19085
    R7        1.84666   0.00212   0.00000   0.00254   0.00254   1.84920
    R8        2.07579   0.00006   0.00000   0.00010   0.00010   2.07590
    R9        2.07690  -0.00077   0.00000  -0.00135  -0.00135   2.07555
   R10        2.06007   0.00010   0.00000   0.00018   0.00018   2.06024
   R11        2.78035  -0.07176   0.00000  -0.12041  -0.12041   2.65995
   R12        2.66659  -0.02440   0.00000  -0.03411  -0.03411   2.63248
   R13        2.93821  -0.03199   0.00000  -0.14895  -0.14903   2.78918
    A1        2.13837  -0.00226   0.00000  -0.00711  -0.00720   2.13117
    A2        2.10315  -0.00084   0.00000  -0.00254  -0.00263   2.10052
    A3        2.04124   0.00318   0.00000   0.01032   0.01024   2.05147
    A4        2.09472  -0.02342   0.00000  -0.03579  -0.03494   2.05977
    A5        2.03679   0.00390   0.00000   0.00661   0.00661   2.04339
    A6        1.32124   0.03854   0.00000   0.15960   0.16004   1.48128
    A7        2.15082   0.01972   0.00000   0.03126   0.02916   2.17999
    A8        2.32908  -0.01706   0.00000  -0.06195  -0.06073   2.26836
    A9        1.92415  -0.00310   0.00000  -0.01077  -0.01077   1.91337
   A10        1.95093   0.00072   0.00000   0.00250   0.00249   1.95342
   A11        1.92535   0.00102   0.00000   0.00394   0.00394   1.92928
   A12        1.87444   0.00072   0.00000   0.00105   0.00104   1.87549
   A13        1.88670   0.00090   0.00000   0.00253   0.00254   1.88924
   A14        1.90042  -0.00024   0.00000   0.00079   0.00077   1.90119
   A15        2.08735  -0.00465   0.00000  -0.00240  -0.00405   2.08330
   A16        2.05682   0.00313   0.00000   0.00296   0.00568   2.06251
   A17        2.04438   0.00422   0.00000   0.01341   0.01207   2.05645
   A18        1.34550   0.01194   0.00000   0.02628   0.02844   1.37394
   A19        2.59983  -0.03286   0.00000  -0.11863  -0.12153   2.47830
   A20        1.87731  -0.00367   0.00000  -0.01177  -0.01177   1.86554
    D1       -0.16881  -0.00070   0.00000  -0.01898  -0.02034  -0.18915
    D2        2.92965   0.00497   0.00000   0.03417   0.03145   2.96110
    D3        2.13936  -0.00371   0.00000  -0.01023  -0.00614   2.13321
    D4        3.00420  -0.00347   0.00000  -0.04350  -0.04486   2.95934
    D5       -0.18052   0.00220   0.00000   0.00965   0.00693  -0.17360
    D6       -0.97082  -0.00648   0.00000  -0.03475  -0.03066  -1.00148
    D7       -1.16220   0.00962   0.00000   0.07415   0.07334  -1.08886
    D8        0.92133   0.00893   0.00000   0.06991   0.06910   0.99043
    D9        3.03851   0.00982   0.00000   0.07533   0.07453   3.11304
   D10        2.02546   0.00407   0.00000   0.01816   0.01788   2.04333
   D11       -2.17420   0.00338   0.00000   0.01392   0.01364  -2.16056
   D12       -0.05701   0.00427   0.00000   0.01934   0.01907  -0.03795
   D13       -2.88802  -0.01344   0.00000  -0.09193  -0.09085  -2.97887
   D14       -0.80449  -0.01413   0.00000  -0.09617  -0.09509  -0.89958
   D15        1.31270  -0.01325   0.00000  -0.09075  -0.08966   1.22303
   D16        0.13295  -0.01055   0.00000  -0.08483  -0.08687   0.04608
   D17        2.80835  -0.00316   0.00000  -0.04900  -0.05074   2.75761
   D18       -3.05329  -0.00586   0.00000  -0.03164  -0.03290  -3.08619
   D19       -0.37789   0.00153   0.00000   0.00419   0.00323  -0.37466
   D20       -3.03487  -0.00243   0.00000  -0.00667  -0.00847  -3.04334
   D21       -0.34797   0.00240   0.00000   0.02412   0.02281  -0.32516
   D22        1.59618  -0.00146   0.00000  -0.03182  -0.02871   1.56746
         Item               Value     Threshold  Converged?
 Maximum Force            0.071756     0.000450     NO 
 RMS     Force            0.016095     0.000300     NO 
 Maximum Displacement     0.320825     0.001800     NO 
 RMS     Displacement     0.071692     0.001200     NO 
 Predicted change in Energy=-2.924491D-02
 GradGradGradGradGradGradGradGradGradGradGradGradGradGradGradGradGradGrad

                          Input orientation:                          
 ---------------------------------------------------------------------
 Center     Atomic      Atomic             Coordinates (Angstroms)
 Number     Number       Type             X           Y           Z
 ---------------------------------------------------------------------
      1          7           0        1.172319   -1.356886    0.147134
      2          1           0        2.153405   -1.562154    0.085330
      3          6           0        0.675397   -0.073955   -0.026268
      4          1           0       -2.262177    1.188381    0.106335
      5          6           0        1.651603    1.057823   -0.066639
      6          6           0       -0.725341    0.062731   -0.141050
      7          1           0        2.181441    1.122555    0.893477
      8          1           0        2.407465    0.919597   -0.851436
      9          1           0        1.134885    2.002817   -0.235750
     10          8           0       -1.542297   -1.077095   -0.019932
     11          1           0        0.506010   -2.095511    0.335249
     12          8           0       -1.291202    1.302155    0.149145
     13          1           0       -0.241721   -0.760033   -1.266954
 ---------------------------------------------------------------------
                    Distance matrix (angstroms):
                    1          2          3          4          5
     1  N    0.000000
     2  H    1.004233   0.000000
     3  C    1.386691   2.100404   0.000000
     4  H    4.275023   5.202235   3.200065   0.000000
     5  C    2.471079   2.671924   1.495169   3.919776   0.000000
     6  C    2.387358   3.313409   1.412064   1.920977   2.577908
     7  H    2.779026   2.803845   2.132073   4.513277   1.098517
     8  H    2.775806   2.664801   2.160580   4.774424   1.098335
     9  H    3.381658   3.721491   2.137287   3.510038   1.090234
    10  O    2.734106   3.728884   2.434028   2.380452   3.842012
    11  H    1.012384   1.749526   2.060600   4.301071   3.378966
    12  O    3.624837   4.480364   2.406649   0.978555   2.960804
    13  H    2.086957   2.865083   1.688523   3.124818   2.886180
                    6          7          8          9         10
     6  C    0.000000
     7  H    3.262339   0.000000
     8  H    3.324656   1.771157   0.000000
     9  H    2.689488   1.773498   1.780981   0.000000
    10  O    1.407583   4.420294   4.503198   4.086532   0.000000
    11  H    2.530038   3.670781   3.756944   4.185429   2.314927
    12  O    1.393049   3.556056   3.850668   2.554403   2.398430
    13  H    1.475971   3.752774   3.164174   3.254500   1.829506
                   11         12         13
    11  H    0.000000
    12  O    3.848213   0.000000
    13  H    2.215775   2.712816   0.000000
 Stoichiometry    C3H7NO2
 Framework group  C1[X(C3H7NO2)]
 Deg. of freedom    33
 Full point group                 C1      NOp   1
 Largest Abelian subgroup         C1      NOp   1
 Largest concise Abelian subgroup C1      NOp   1
                         Standard orientation:                         
 ---------------------------------------------------------------------
 Center     Atomic      Atomic             Coordinates (Angstroms)
 Number     Number       Type             X           Y           Z
 ---------------------------------------------------------------------
      1          7           0        1.213060    1.288645   -0.151903
      2          1           0        2.202909    1.446976   -0.091787
      3          6           0        0.656209    0.030257    0.019238
      4          1           0       -2.338218   -1.090952   -0.110022
      5          6           0        1.577711   -1.146658    0.054400
      6          6           0       -0.749186   -0.040149    0.136842
      7          1           0        2.101821   -1.233811   -0.907085
      8          1           0        2.340961   -1.046596    0.837839
      9          1           0        1.017110   -2.066540    0.222189
     10          8           0       -1.511408    1.137473    0.020593
     11          1           0        0.582138    2.058557   -0.336552
     12          8           0       -1.373827   -1.250536   -0.155338
     13          1           0       -0.224665    0.755654    1.263814
 ---------------------------------------------------------------------
 Rotational constants (GHZ):      4.8523316      3.2632692      2.0181676
 Standard basis: 6-31G (6D, 7F)
 There are    68 symmetry adapted cartesian basis functions of A   symmetry.
 There are    68 symmetry adapted basis functions of A   symmetry.
    68 basis functions,   160 primitive gaussians,    68 cartesian basis functions
    24 alpha electrons       24 beta electrons
       nuclear repulsion energy       245.2003016725 Hartrees.
 NAtoms=   13 NActive=   13 NUniq=   13 SFac= 1.00D+00 NAtFMM=   60 NAOKFM=F Big=F
 Integral buffers will be    131072 words long.
 Raffenetti 2 integral format.
 Two-electron integral symmetry is turned on.
 One-electron integrals computed using PRISM.
 NBasis=    68 RedAO= T EigKep=  3.37D-03  NBF=    68
 NBsUse=    68 1.00D-06 EigRej= -1.00D+00 NBFU=    68
 Initial guess from the checkpoint file:  "Ala-S-opt-freq-p3-6-31g.chk"
 B after Tr=     0.000000    0.000000    0.000000
         Rot=    0.999849   -0.005188    0.002309    0.016412 Ang=  -1.99 deg.
 ExpMin= 1.61D-01 ExpMax= 5.48D+03 ExpMxC= 8.25D+02 IAcc=1 IRadAn=         1 AccDes= 0.00D+00
 Harris functional with IExCor=  402 and IRadAn=       1 diagonalized for initial guess.
 HarFok:  IExCor=  402 AccDes= 0.00D+00 IRadAn=         1 IDoV= 1 UseB2=F ITyADJ=14
 ICtDFT=  3500011 ScaDFX=  1.000000  1.000000  1.000000  1.000000
 FoFCou: FMM=F IPFlag=           0 FMFlag=      100000 FMFlg1=           0
         NFxFlg=           0 DoJE=T BraDBF=F KetDBF=T FulRan=T
         wScrn=  0.000000 ICntrl=     500 IOpCl=  0 I1Cent=   200000004 NGrid=           0
         NMat0=    1 NMatS0=      1 NMatT0=    0 NMatD0=    1 NMtDS0=    0 NMtDT0=    0
 Petite list used in FoFCou.
 Keep R1 ints in memory in canonical form, NReq=3676491.
 Requested convergence on RMS density matrix=1.00D-08 within 128 cycles.
 Requested convergence on MAX density matrix=1.00D-06.
 Requested convergence on             energy=1.00D-06.
 No special actions if energy rises.
 Integral accuracy reduced to 1.0D-05 until final iterations.
 Initial convergence to 1.0D-05 achieved.  Increase integral accuracy.
 SCF Done:  E(RB3LYP) =  -323.487433569     A.U. after   15 cycles
            NFock= 15  Conv=0.94D-08     -V/T= 2.0060
 Calling FoFJK, ICntrl=      2127 FMM=F ISym2X=0 I1Cent= 0 IOpClX= 0 NMat=1 NMatS=1 NMatT=0.
 ***** Axes restored to original set *****
 -------------------------------------------------------------------
 Center     Atomic                   Forces (Hartrees/Bohr)
 Number     Number              X              Y              Z
 -------------------------------------------------------------------
      1        7           0.003745527    0.002893081    0.022007713
      2        1          -0.000137450    0.001737128   -0.000462990
      3        6           0.023840231   -0.020373467   -0.016788334
      4        1          -0.001658365   -0.000581427   -0.000885054
      5        6          -0.001632958    0.002347240   -0.004077689
      6        6          -0.044325918   -0.076021983    0.009830283
      7        1          -0.001050077   -0.000735157    0.000155236
      8        1          -0.000070316    0.000310158    0.000682491
      9        1           0.000390592    0.000769449   -0.000330445
     10        8           0.020252550    0.042564284    0.002133683
     11        1           0.000191071    0.001771763   -0.000010791
     12        8           0.009836382   -0.005842092   -0.014544214
     13        1          -0.009381267    0.051161022    0.002290110
 -------------------------------------------------------------------
 Cartesian Forces:  Max     0.076021983 RMS     0.019566149

 GradGradGradGradGradGradGradGradGradGradGradGradGradGradGradGradGradGrad
 Berny optimization.
 Using GEDIIS/GDIIS optimizer.
 FormGI is forming the generalized inverse of G from B-inverse, IUseBI=4.
 Internal  Forces:  Max     0.046038390 RMS     0.011468543
 Search for a local minimum.
 Step number   2 out of a maximum of   65
 All quantities printed in internal units (Hartrees-Bohrs-Radians)
 Mixed Optimization -- RFO/linear search
 Update second derivatives using D2CorX and points    1    2
 DE= -3.29D-02 DEPred=-2.92D-02 R= 1.13D+00
 TightC=F SS=  1.41D+00  RLast= 3.86D-01 DXNew= 5.0454D-01 1.1581D+00
 Trust test= 1.13D+00 RLast= 3.86D-01 DXMaxT set to 5.05D-01
 ITU=  1  0
 Use linear search instead of GDIIS.
     Eigenvalues ---    0.00816   0.01545   0.02153   0.02223   0.02355
     Eigenvalues ---    0.03570   0.03991   0.04502   0.05750   0.06002
     Eigenvalues ---    0.07182   0.09602   0.15951   0.16000   0.16000
     Eigenvalues ---    0.16000   0.16000   0.16093   0.16718   0.18892
     Eigenvalues ---    0.23171   0.26090   0.32727   0.33535   0.33791
     Eigenvalues ---    0.33876   0.34804   0.42852   0.43882   0.45547
     Eigenvalues ---    0.46702   0.51925   0.69990
 RFO step:  Lambda=-3.70125995D-02 EMin= 8.15518028D-03
 Quartic linear search produced a step of  1.30864.
 Iteration  1 RMS(Cart)=  0.10762116 RMS(Int)=  0.04611944
 Iteration  2 RMS(Cart)=  0.05699585 RMS(Int)=  0.01267452
 Iteration  3 RMS(Cart)=  0.00538800 RMS(Int)=  0.01192437
 Iteration  4 RMS(Cart)=  0.00021298 RMS(Int)=  0.01192408
 Iteration  5 RMS(Cart)=  0.00001009 RMS(Int)=  0.01192408
 Iteration  6 RMS(Cart)=  0.00000045 RMS(Int)=  0.01192408
 Variable       Old X    -DE/DX   Delta X   Delta X   Delta X     New X
                                 (Linear)    (Quad)   (Total)
    R1        1.89773  -0.00046  -0.00368   0.00004  -0.00363   1.89409
    R2        2.62047  -0.00187   0.06636  -0.03840   0.02796   2.64843
    R3        1.91313  -0.00142  -0.00053  -0.00544  -0.00597   1.90716
    R4        2.82546   0.00059  -0.00263   0.00474   0.00211   2.82757
    R5        2.66841   0.01460   0.03723   0.04792   0.07593   2.74435
    R6        3.19085   0.00141   0.04397  -0.08150  -0.05414   3.13671
    R7        1.84920   0.00175   0.00333   0.00462   0.00795   1.85715
    R8        2.07590  -0.00041   0.00014  -0.00226  -0.00212   2.07378
    R9        2.07555  -0.00058  -0.00177  -0.00203  -0.00379   2.07176
   R10        2.06024   0.00053   0.00023   0.00261   0.00284   2.06308
   R11        2.65995  -0.04604  -0.15757  -0.14342  -0.30099   2.35895
   R12        2.63248  -0.01225  -0.04464  -0.02800  -0.07264   2.55984
   R13        2.78918  -0.02380  -0.19502  -0.12170  -0.28581   2.50337
    A1        2.13117  -0.00154  -0.00942  -0.00764  -0.01732   2.11385
    A2        2.10052   0.00176  -0.00344   0.02051   0.01680   2.11732
    A3        2.05147  -0.00022   0.01340  -0.01325  -0.00012   2.05135
    A4        2.05977  -0.00806  -0.04573  -0.00200  -0.04906   2.01072
    A5        2.04339  -0.00735   0.00864  -0.05643  -0.03758   2.00581
    A6        1.48128   0.02744   0.20943   0.14043   0.35644   1.83772
    A7        2.17999   0.01538   0.03817   0.05844   0.08472   2.26470
    A8        2.26836  -0.01855  -0.07947  -0.16017  -0.21835   2.05001
    A9        1.91337  -0.00206  -0.01410  -0.00960  -0.02364   1.88973
   A10        1.95342   0.00075   0.00326   0.00532   0.00852   1.96194
   A11        1.92928   0.00122   0.00515   0.00800   0.01312   1.94240
   A12        1.87549   0.00047   0.00137   0.00359   0.00498   1.88046
   A13        1.88924   0.00026   0.00333  -0.00117   0.00223   1.89148
   A14        1.90119  -0.00066   0.00101  -0.00646  -0.00557   1.89562
   A15        2.08330   0.00485  -0.00530   0.04301   0.03251   2.11581
   A16        2.06251   0.00043   0.00744  -0.03854  -0.03161   2.03090
   A17        2.05645  -0.00359   0.01580  -0.01138   0.00988   2.06634
   A18        1.37394   0.02590   0.03722   0.26355   0.33090   1.70483
   A19        2.47830  -0.03377  -0.15904  -0.24077  -0.41003   2.06827
   A20        1.86554  -0.00104  -0.01540   0.00230  -0.01310   1.85245
    D1       -0.18915   0.00123  -0.02662   0.02698  -0.01125  -0.20040
    D2        2.96110   0.00473   0.04115   0.02431   0.04063   3.00173
    D3        2.13321  -0.00624  -0.00804  -0.07436  -0.04596   2.08726
    D4        2.95934   0.00116  -0.05871   0.09081   0.02049   2.97982
    D5       -0.17360   0.00465   0.00906   0.08814   0.07237  -0.10123
    D6       -1.00148  -0.00631  -0.04013  -0.01053  -0.01422  -1.01570
    D7       -1.08886   0.00730   0.09598   0.02000   0.11144  -0.97743
    D8        0.99043   0.00701   0.09043   0.02152   0.10738   1.09781
    D9        3.11304   0.00753   0.09754   0.02255   0.11560  -3.05454
   D10        2.04333   0.00337   0.02339   0.02225   0.04940   2.09274
   D11       -2.16056   0.00308   0.01785   0.02376   0.04535  -2.11521
   D12       -0.03795   0.00360   0.02495   0.02479   0.05357   0.01562
   D13       -2.97887  -0.01117  -0.11889  -0.06149  -0.17964   3.12467
   D14       -0.89958  -0.01146  -0.12444  -0.05997  -0.18369  -1.08328
   D15        1.22303  -0.01094  -0.11734  -0.05894  -0.17547   1.04756
   D16        0.04608  -0.00504  -0.11368   0.06594  -0.05375  -0.00767
   D17        2.75761  -0.00169  -0.06640   0.04552  -0.02368   2.73394
   D18       -3.08619  -0.00114  -0.04306   0.06345   0.00820  -3.07799
   D19       -0.37466   0.00221   0.00423   0.04304   0.03827  -0.33639
   D20       -3.04334  -0.00749  -0.01108  -0.07896  -0.08536  -3.12870
   D21       -0.32516  -0.00212   0.02985  -0.08541  -0.05015  -0.37530
   D22        1.56746   0.00837  -0.03758   0.16089   0.11323   1.68069
         Item               Value     Threshold  Converged?
 Maximum Force            0.046038     0.000450     NO 
 RMS     Force            0.011469     0.000300     NO 
 Maximum Displacement     0.904576     0.001800     NO 
 RMS     Displacement     0.153421     0.001200     NO 
 Predicted change in Energy=-5.456300D-02
 GradGradGradGradGradGradGradGradGradGradGradGradGradGradGradGradGradGrad

                          Input orientation:                          
 ---------------------------------------------------------------------
 Center     Atomic      Atomic             Coordinates (Angstroms)
 Number     Number       Type             X           Y           Z
 ---------------------------------------------------------------------
      1          7           0        1.188251   -1.358461    0.227648
      2          1           0        2.174503   -1.532994    0.189299
      3          6           0        0.667587   -0.083952   -0.034461
      4          1           0       -2.315503    1.057398    0.030917
      5          6           0        1.679397    1.016336   -0.101385
      6          6           0       -0.780662   -0.020500   -0.121442
      7          1           0        2.244303    1.022013    0.839426
      8          1           0        2.395147    0.876748   -0.920012
      9          1           0        1.199367    1.989624   -0.220432
     10          8           0       -1.483010   -1.042431    0.022183
     11          1           0        0.531592   -2.099706    0.422299
     12          8           0       -1.345170    1.187702    0.116350
     13          1           0       -0.336015   -0.281352   -1.341748
 ---------------------------------------------------------------------
                    Distance matrix (angstroms):
                    1          2          3          4          5
     1  N    0.000000
     2  H    1.002310   0.000000
     3  C    1.401488   2.102519   0.000000
     4  H    4.260443   5.186075   3.194649   0.000000
     5  C    2.447274   2.613180   1.496286   3.997301   0.000000
     6  C    2.405956   3.334246   1.452245   1.881706   2.669704
     7  H    2.675104   2.637347   2.114917   4.631067   1.097395
     8  H    2.787451   2.661975   2.166012   4.809067   1.096327
     9  H    3.377954   3.677989   2.148742   3.645070   1.091737
    10  O    2.697726   3.694046   2.355198   2.258851   3.775528
    11  H    1.009224   1.753456   2.071325   4.269243   3.361758
    12  O    3.593544   4.449225   2.385590   0.982764   3.037232
    13  H    2.438557   3.195843   1.659875   2.755872   2.698960
                    6          7          8          9         10
     6  C    0.000000
     7  H    3.340736   0.000000
     8  H    3.395369   1.771858   0.000000
     9  H    2.823281   1.775236   1.777018   0.000000
    10  O    1.248304   4.338512   4.428440   4.055536   0.000000
    11  H    2.518086   3.585039   3.759510   4.193047   2.310096
    12  O    1.354610   3.665326   3.893675   2.689084   2.236372
    13  H    1.324727   3.621371   2.996382   2.961770   1.937820
                   11         12         13
    11  H    0.000000
    12  O    3.797748   0.000000
    13  H    2.677875   2.302729   0.000000
 Stoichiometry    C3H7NO2
 Framework group  C1[X(C3H7NO2)]
 Deg. of freedom    33
 Full point group                 C1      NOp   1
 Largest Abelian subgroup         C1      NOp   1
 Largest concise Abelian subgroup C1      NOp   1
                         Standard orientation:                         
 ---------------------------------------------------------------------
 Center     Atomic      Atomic             Coordinates (Angstroms)
 Number     Number       Type             X           Y           Z
 ---------------------------------------------------------------------
      1          7           0        1.231475    1.272730   -0.141926
      2          1           0        2.224868    1.396307   -0.091695
      3          6           0        0.648374    0.011546    0.041316
      4          1           0       -2.386342   -0.976893   -0.097483
      5          6           0        1.605228   -1.138801    0.042398
      6          6           0       -0.801608    0.013618    0.122338
      7          1           0        2.173233   -1.114791   -0.896256
      8          1           0        2.323388   -1.084325    0.868964
      9          1           0        1.077966   -2.092960    0.101259
     10          8           0       -1.452846    1.075422    0.040335
     11          1           0        0.612452    2.055577   -0.291909
     12          8           0       -1.423128   -1.148920   -0.189407
     13          1           0       -0.350064    0.177780    1.356867
 ---------------------------------------------------------------------
 Rotational constants (GHZ):      5.2356634      3.1995462      2.0609141
 Standard basis: 6-31G (6D, 7F)
 There are    68 symmetry adapted cartesian basis functions of A   symmetry.
 There are    68 symmetry adapted basis functions of A   symmetry.
    68 basis functions,   160 primitive gaussians,    68 cartesian basis functions
    24 alpha electrons       24 beta electrons
       nuclear repulsion energy       249.1031335263 Hartrees.
 NAtoms=   13 NActive=   13 NUniq=   13 SFac= 1.00D+00 NAtFMM=   60 NAOKFM=F Big=F
 Integral buffers will be    131072 words long.
 Raffenetti 2 integral format.
 Two-electron integral symmetry is turned on.
 One-electron integrals computed using PRISM.
 NBasis=    68 RedAO= T EigKep=  3.09D-03  NBF=    68
 NBsUse=    68 1.00D-06 EigRej= -1.00D+00 NBFU=    68
 Initial guess from the checkpoint file:  "Ala-S-opt-freq-p3-6-31g.chk"
 B after Tr=     0.000000    0.000000    0.000000
         Rot=    0.999833   -0.017093    0.002324    0.006089 Ang=  -2.10 deg.
 ExpMin= 1.61D-01 ExpMax= 5.48D+03 ExpMxC= 8.25D+02 IAcc=1 IRadAn=         1 AccDes= 0.00D+00
 Harris functional with IExCor=  402 and IRadAn=       1 diagonalized for initial guess.
 HarFok:  IExCor=  402 AccDes= 0.00D+00 IRadAn=         1 IDoV= 1 UseB2=F ITyADJ=14
 ICtDFT=  3500011 ScaDFX=  1.000000  1.000000  1.000000  1.000000
 FoFCou: FMM=F IPFlag=           0 FMFlag=      100000 FMFlg1=           0
         NFxFlg=           0 DoJE=T BraDBF=F KetDBF=T FulRan=T
         wScrn=  0.000000 ICntrl=     500 IOpCl=  0 I1Cent=   200000004 NGrid=           0
         NMat0=    1 NMatS0=      1 NMatT0=    0 NMatD0=    1 NMtDS0=    0 NMtDT0=    0
 Petite list used in FoFCou.
 Keep R1 ints in memory in canonical form, NReq=3676491.
 Requested convergence on RMS density matrix=1.00D-08 within 128 cycles.
 Requested convergence on MAX density matrix=1.00D-06.
 Requested convergence on             energy=1.00D-06.
 No special actions if energy rises.
 Integral accuracy reduced to 1.0D-05 until final iterations.
 Initial convergence to 1.0D-05 achieved.  Increase integral accuracy.
 SCF Done:  E(RB3LYP) =  -323.533571372     A.U. after   16 cycles
            NFock= 16  Conv=0.65D-08     -V/T= 2.0049
 Calling FoFJK, ICntrl=      2127 FMM=F ISym2X=0 I1Cent= 0 IOpClX= 0 NMat=1 NMatS=1 NMatT=0.
 ***** Axes restored to original set *****
 -------------------------------------------------------------------
 Center     Atomic                   Forces (Hartrees/Bohr)
 Number     Number              X              Y              Z
 -------------------------------------------------------------------
      1        7          -0.020159650    0.034997140   -0.002533138
      2        1           0.002384656   -0.001484979   -0.002465779
      3        6           0.029563632   -0.040897096    0.003422261
      4        1           0.002400377    0.002689320    0.001496504
      5        6          -0.007501513    0.007421550   -0.004308385
      6        6           0.027981948   -0.013927040   -0.009793842
      7        1          -0.000915739    0.000750339   -0.000082152
      8        1           0.000362195   -0.000323993   -0.000117312
      9        1          -0.000080142   -0.000096947   -0.000297256
     10        8          -0.041553997   -0.057905542    0.022752168
     11        1          -0.002943287   -0.000754155   -0.000132509
     12        8          -0.008838215    0.042212461   -0.003185215
     13        1           0.019299734    0.027318942   -0.004755346
 -------------------------------------------------------------------
 Cartesian Forces:  Max     0.057905542 RMS     0.018979030

 GradGradGradGradGradGradGradGradGradGradGradGradGradGradGradGradGradGrad
 Berny optimization.
 Using GEDIIS/GDIIS optimizer.
 FormGI is forming the generalized inverse of G from B-inverse, IUseBI=4.
 Internal  Forces:  Max     0.073400721 RMS     0.014471379
 Search for a local minimum.
 Step number   3 out of a maximum of   65
 All quantities printed in internal units (Hartrees-Bohrs-Radians)
 Mixed Optimization -- RFO/linear search
 Update second derivatives using D2CorX and points    2    3
 DE= -4.61D-02 DEPred=-5.46D-02 R= 8.46D-01
 TightC=F SS=  1.41D+00  RLast= 9.13D-01 DXNew= 8.4853D-01 2.7383D+00
 Trust test= 8.46D-01 RLast= 9.13D-01 DXMaxT set to 8.49D-01
 ITU=  1  1  0
 Use linear search instead of GDIIS.
     Eigenvalues ---    0.00816   0.01545   0.02220   0.02259   0.02347
     Eigenvalues ---    0.03989   0.04349   0.04999   0.05664   0.06094
     Eigenvalues ---    0.07907   0.09420   0.15997   0.16000   0.16000
     Eigenvalues ---    0.16000   0.16021   0.16094   0.21252   0.23261
     Eigenvalues ---    0.24200   0.26380   0.32793   0.33787   0.33853
     Eigenvalues ---    0.34798   0.40553   0.42210   0.45545   0.46689
     Eigenvalues ---    0.50075   0.51991   0.79769
 RFO step:  Lambda=-2.57809071D-02 EMin= 8.15685013D-03
 Quartic linear search produced a step of  0.00725.
 Iteration  1 RMS(Cart)=  0.06480058 RMS(Int)=  0.00765390
 Iteration  2 RMS(Cart)=  0.00560813 RMS(Int)=  0.00241989
 Iteration  3 RMS(Cart)=  0.00002002 RMS(Int)=  0.00241982
 Iteration  4 RMS(Cart)=  0.00000005 RMS(Int)=  0.00241982
 Variable       Old X    -DE/DX   Delta X   Delta X   Delta X     New X
                                 (Linear)    (Quad)   (Total)
    R1        1.89409   0.00270  -0.00003   0.00255   0.00252   1.89661
    R2        2.64843  -0.03845   0.00020  -0.01658  -0.01638   2.63205
    R3        1.90716   0.00245  -0.00004   0.00462   0.00458   1.91174
    R4        2.82757   0.00041   0.00002  -0.00100  -0.00099   2.82658
    R5        2.74435   0.00646   0.00055   0.03632   0.03680   2.78115
    R6        3.13671  -0.00817  -0.00039  -0.06273  -0.06911   3.06760
    R7        1.85715  -0.00286   0.00006  -0.00287  -0.00281   1.85434
    R8        2.07378  -0.00054  -0.00002  -0.00108  -0.00109   2.07269
    R9        2.07176   0.00037  -0.00003  -0.00008  -0.00011   2.07165
   R10        2.06308  -0.00002   0.00002  -0.00010  -0.00007   2.06301
   R11        2.35895   0.07340  -0.00218   0.08253   0.08035   2.43930
   R12        2.55984   0.04244  -0.00053   0.05557   0.05505   2.61489
   R13        2.50337   0.00900  -0.00207  -0.02431  -0.01890   2.48447
    A1        2.11385   0.00167  -0.00013   0.00302   0.00290   2.11675
    A2        2.11732   0.00082   0.00012  -0.00022  -0.00010   2.11722
    A3        2.05135  -0.00254   0.00000  -0.00280  -0.00280   2.04855
    A4        2.01072   0.01553  -0.00036   0.01972   0.01814   2.02886
    A5        2.00581  -0.01256  -0.00027  -0.02632  -0.02471   1.98110
    A6        1.83772   0.00563   0.00258   0.14416   0.14946   1.98718
    A7        2.26470  -0.00298   0.00061   0.00423   0.00362   2.26833
    A8        2.05001  -0.01754  -0.00158  -0.11683  -0.11715   1.93286
    A9        1.88973   0.00022  -0.00017  -0.00636  -0.00654   1.88319
   A10        1.96194  -0.00010   0.00006   0.00141   0.00147   1.96341
   A11        1.94240  -0.00025   0.00010   0.00042   0.00051   1.94291
   A12        1.88046   0.00021   0.00004   0.00297   0.00301   1.88347
   A13        1.89148  -0.00022   0.00002   0.00024   0.00025   1.89173
   A14        1.89562   0.00015  -0.00004   0.00136   0.00131   1.89694
   A15        2.11581   0.00408   0.00024  -0.00020  -0.00039   2.11543
   A16        2.03090  -0.01328  -0.00023  -0.04985  -0.05136   1.97954
   A17        2.06634   0.00877   0.00007   0.05568   0.05695   2.12328
   A18        1.70483   0.02431   0.00240   0.16625   0.17051   1.87535
   A19        2.06827  -0.01950  -0.00297  -0.17732  -0.18158   1.88669
   A20        1.85245   0.00475  -0.00009   0.01340   0.01331   1.86575
    D1       -0.20040   0.00077  -0.00008  -0.02938  -0.03180  -0.23220
    D2        3.00173   0.00111   0.00029   0.00697   0.00319   3.00492
    D3        2.08726  -0.00604  -0.00033  -0.04734  -0.04126   2.04600
    D4        2.97982   0.00240   0.00015  -0.02930  -0.03149   2.94833
    D5       -0.10123   0.00274   0.00052   0.00705   0.00349  -0.09774
    D6       -1.01570  -0.00440  -0.00010  -0.04727  -0.04096  -1.05666
    D7       -0.97743   0.00190   0.00081   0.04532   0.04548  -0.93194
    D8        1.09781   0.00225   0.00078   0.04570   0.04583   1.14364
    D9       -3.05454   0.00218   0.00084   0.04878   0.04897  -3.00557
   D10        2.09274   0.00125   0.00036   0.00128   0.00255   2.09529
   D11       -2.11521   0.00160   0.00033   0.00166   0.00290  -2.11232
   D12        0.01562   0.00154   0.00039   0.00474   0.00603   0.02166
   D13        3.12467  -0.00486  -0.00130  -0.07547  -0.07703   3.04765
   D14       -1.08328  -0.00451  -0.00133  -0.07509  -0.07668  -1.15995
   D15        1.04756  -0.00458  -0.00127  -0.07201  -0.07354   0.97402
   D16       -0.00767   0.00252  -0.00039  -0.04288  -0.04159  -0.04926
   D17        2.73394   0.00319  -0.00017  -0.01530  -0.01515   2.71879
   D18       -3.07799   0.00223   0.00006  -0.00048  -0.00101  -3.07900
   D19       -0.33639   0.00289   0.00028   0.02710   0.02544  -0.31095
   D20       -3.12870  -0.00791  -0.00062  -0.04621  -0.04258   3.11191
   D21       -0.37530  -0.00820  -0.00036  -0.03189  -0.02981  -0.40511
   D22        1.68069   0.01742   0.00082   0.09996   0.09408   1.77477
         Item               Value     Threshold  Converged?
 Maximum Force            0.073401     0.000450     NO 
 RMS     Force            0.014471     0.000300     NO 
 Maximum Displacement     0.362271     0.001800     NO 
 RMS     Displacement     0.064146     0.001200     NO 
 Predicted change in Energy=-1.496479D-02
 GradGradGradGradGradGradGradGradGradGradGradGradGradGradGradGradGradGrad

                          Input orientation:                          
 ---------------------------------------------------------------------
 Center     Atomic      Atomic             Coordinates (Angstroms)
 Number     Number       Type             X           Y           Z
 ---------------------------------------------------------------------
      1          7           0        1.190552   -1.367943    0.251220
      2          1           0        2.176652   -1.551308    0.215356
      3          6           0        0.677830   -0.108171   -0.048840
      4          1           0       -2.298253    1.099835    0.014898
      5          6           0        1.669167    1.009631   -0.120092
      6          6           0       -0.791727   -0.074452   -0.121143
      7          1           0        2.241230    1.013019    0.815720
      8          1           0        2.377679    0.889763   -0.948011
      9          1           0        1.171312    1.975745   -0.222883
     10          8           0       -1.493473   -1.147482    0.028463
     11          1           0        0.527590   -2.099240    0.472846
     12          8           0       -1.325233    1.180673    0.112882
     13          1           0       -0.303541   -0.089646   -1.341774
 ---------------------------------------------------------------------
                    Distance matrix (angstroms):
                    1          2          3          4          5
     1  N    0.000000
     2  H    1.003645   0.000000
     3  C    1.392819   2.097358   0.000000
     4  H    4.279899   5.205143   3.212540   0.000000
     5  C    2.453528   2.632199   1.495763   3.970741   0.000000
     6  C    2.396081   3.332508   1.471721   1.914961   2.689096
     7  H    2.662999   2.634460   2.109206   4.610396   1.096818
     8  H    2.818628   2.711579   2.166534   4.778668   1.096270
     9  H    3.377187   3.693625   2.148610   3.586313   1.091698
    10  O    2.702260   3.697001   2.408464   2.387108   3.831122
    11  H    1.011648   1.756684   2.063755   4.292922   3.364499
    12  O    3.583819   4.442682   2.387370   0.981277   3.008316
    13  H    2.530609   3.272990   1.623302   2.689665   2.567585
                    6          7          8          9         10
     6  C    0.000000
     7  H    3.355463   0.000000
     8  H    3.414463   1.773290   0.000000
     9  H    2.840278   1.774898   1.777777   0.000000
    10  O    1.290823   4.385834   4.482152   4.113247   0.000000
    11  H    2.488612   3.569353   3.791544   4.183769   2.277721
    12  O    1.383739   3.638921   3.862859   2.641517   2.335752
    13  H    1.314723   3.513760   2.881533   2.773616   2.100596
                   11         12         13
    11  H    0.000000
    12  O    3.784225   0.000000
    13  H    2.832329   2.184854   0.000000
 Stoichiometry    C3H7NO2
 Framework group  C1[X(C3H7NO2)]
 Deg. of freedom    33
 Full point group                 C1      NOp   1
 Largest Abelian subgroup         C1      NOp   1
 Largest concise Abelian subgroup C1      NOp   1
                         Standard orientation:                         
 ---------------------------------------------------------------------
 Center     Atomic      Atomic             Coordinates (Angstroms)
 Number     Number       Type             X           Y           Z
 ---------------------------------------------------------------------
      1          7           0        1.186220    1.303508   -0.145896
      2          1           0        2.174448    1.471157   -0.094882
      3          6           0        0.657194    0.030991    0.056038
      4          1           0       -2.333561   -1.131014   -0.103764
      5          6           0        1.634373   -1.101372    0.042546
      6          6           0       -0.812822    0.010327    0.123763
      7          1           0        2.208379   -1.040196   -0.890077
      8          1           0        2.342524   -1.054267    0.878076
      9          1           0        1.124298   -2.066181    0.070333
     10          8           0       -1.500820    1.100418    0.056048
     11          1           0        0.532902    2.057933   -0.311583
     12          8           0       -1.361413   -1.216343   -0.206482
     13          1           0       -0.327136   -0.074262    1.342554
 ---------------------------------------------------------------------
 Rotational constants (GHZ):      5.0340304      3.2124014      2.0363830
 Standard basis: 6-31G (6D, 7F)
 There are    68 symmetry adapted cartesian basis functions of A   symmetry.
 There are    68 symmetry adapted basis functions of A   symmetry.
    68 basis functions,   160 primitive gaussians,    68 cartesian basis functions
    24 alpha electrons       24 beta electrons
       nuclear repulsion energy       246.9287767334 Hartrees.
 NAtoms=   13 NActive=   13 NUniq=   13 SFac= 1.00D+00 NAtFMM=   60 NAOKFM=F Big=F
 Integral buffers will be    131072 words long.
 Raffenetti 2 integral format.
 Two-electron integral symmetry is turned on.
 One-electron integrals computed using PRISM.
 NBasis=    68 RedAO= T EigKep=  3.41D-03  NBF=    68
 NBsUse=    68 1.00D-06 EigRej= -1.00D+00 NBFU=    68
 Initial guess from the checkpoint file:  "Ala-S-opt-freq-p3-6-31g.chk"
 B after Tr=     0.000000    0.000000    0.000000
         Rot=    0.999884   -0.004702    0.000275   -0.014486 Ang=  -1.75 deg.
 ExpMin= 1.61D-01 ExpMax= 5.48D+03 ExpMxC= 8.25D+02 IAcc=1 IRadAn=         1 AccDes= 0.00D+00
 Harris functional with IExCor=  402 and IRadAn=       1 diagonalized for initial guess.
 HarFok:  IExCor=  402 AccDes= 0.00D+00 IRadAn=         1 IDoV= 1 UseB2=F ITyADJ=14
 ICtDFT=  3500011 ScaDFX=  1.000000  1.000000  1.000000  1.000000
 FoFCou: FMM=F IPFlag=           0 FMFlag=      100000 FMFlg1=           0
         NFxFlg=           0 DoJE=T BraDBF=F KetDBF=T FulRan=T
         wScrn=  0.000000 ICntrl=     500 IOpCl=  0 I1Cent=   200000004 NGrid=           0
         NMat0=    1 NMatS0=      1 NMatT0=    0 NMatD0=    1 NMtDS0=    0 NMtDT0=    0
 Petite list used in FoFCou.
 Keep R1 ints in memory in canonical form, NReq=3676491.
 Requested convergence on RMS density matrix=1.00D-08 within 128 cycles.
 Requested convergence on MAX density matrix=1.00D-06.
 Requested convergence on             energy=1.00D-06.
 No special actions if energy rises.
 Integral accuracy reduced to 1.0D-05 until final iterations.
 Initial convergence to 1.0D-05 achieved.  Increase integral accuracy.
 SCF Done:  E(RB3LYP) =  -323.548941740     A.U. after   14 cycles
            NFock= 14  Conv=0.82D-08     -V/T= 2.0056
 Calling FoFJK, ICntrl=      2127 FMM=F ISym2X=0 I1Cent= 0 IOpClX= 0 NMat=1 NMatS=1 NMatT=0.
 ***** Axes restored to original set *****
 -------------------------------------------------------------------
 Center     Atomic                   Forces (Hartrees/Bohr)
 Number     Number              X              Y              Z
 -------------------------------------------------------------------
      1        7          -0.016711567    0.033373327   -0.009740868
      2        1           0.001971646   -0.002108270   -0.002694088
      3        6           0.012280775   -0.041291885    0.015289530
      4        1           0.001678003    0.001479559    0.001097844
      5        6          -0.007037019    0.007244292   -0.002427650
      6        6           0.011335543   -0.027344860   -0.005267200
      7        1          -0.000318255    0.001150135   -0.000126396
      8        1           0.000180482   -0.000503447    0.000000465
      9        1          -0.000406973   -0.000442145   -0.000563773
     10        8          -0.001523031    0.003085514    0.008174354
     11        1          -0.003116705    0.000295766   -0.001079598
     12        8          -0.009619486    0.018546712    0.000469327
     13        1           0.011286587    0.006515302   -0.003131945
 -------------------------------------------------------------------
 Cartesian Forces:  Max     0.041291885 RMS     0.011679076

 GradGradGradGradGradGradGradGradGradGradGradGradGradGradGradGradGradGrad
 Berny optimization.
 Using GEDIIS/GDIIS optimizer.
 FormGI is forming the generalized inverse of G from B-inverse, IUseBI=4.
 Internal  Forces:  Max     0.038030982 RMS     0.007081645
 Search for a local minimum.
 Step number   4 out of a maximum of   65
 All quantities printed in internal units (Hartrees-Bohrs-Radians)
 Mixed Optimization -- RFO/linear search
 Update second derivatives using D2CorX and points    3    4
 DE= -1.54D-02 DEPred=-1.50D-02 R= 1.03D+00
 TightC=F SS=  1.41D+00  RLast= 4.06D-01 DXNew= 1.4270D+00 1.2181D+00
 Trust test= 1.03D+00 RLast= 4.06D-01 DXMaxT set to 1.22D+00
 ITU=  1  1  1  0
 Use linear search instead of GDIIS.
     Eigenvalues ---    0.00815   0.01545   0.02201   0.02246   0.02344
     Eigenvalues ---    0.04100   0.04443   0.05394   0.05658   0.06132
     Eigenvalues ---    0.07814   0.09237   0.15977   0.15998   0.16000
     Eigenvalues ---    0.16000   0.16012   0.16089   0.21687   0.23019
     Eigenvalues ---    0.24565   0.26436   0.32795   0.33787   0.33853
     Eigenvalues ---    0.34796   0.41631   0.41911   0.45525   0.46691
     Eigenvalues ---    0.51887   0.54188   0.63759
 RFO step:  Lambda=-7.66940195D-03 EMin= 8.14834372D-03
 Quartic linear search produced a step of  0.25576.
 Iteration  1 RMS(Cart)=  0.05279484 RMS(Int)=  0.00195971
 Iteration  2 RMS(Cart)=  0.00173056 RMS(Int)=  0.00081640
 Iteration  3 RMS(Cart)=  0.00000231 RMS(Int)=  0.00081640
 Iteration  4 RMS(Cart)=  0.00000001 RMS(Int)=  0.00081640
 Variable       Old X    -DE/DX   Delta X   Delta X   Delta X     New X
                                 (Linear)    (Quad)   (Total)
    R1        1.89661   0.00242   0.00065   0.00469   0.00534   1.90195
    R2        2.63205  -0.03803  -0.00419  -0.05179  -0.05598   2.57606
    R3        1.91174   0.00159   0.00117   0.00500   0.00617   1.91791
    R4        2.82658   0.00069  -0.00025   0.00052   0.00027   2.82685
    R5        2.78115  -0.00669   0.00941  -0.01217  -0.00209   2.77906
    R6        3.06760  -0.00565  -0.01768  -0.03334  -0.05245   3.01514
    R7        1.85434  -0.00190  -0.00072  -0.00381  -0.00452   1.84982
    R8        2.07269  -0.00027  -0.00028  -0.00050  -0.00078   2.07191
    R9        2.07165   0.00017  -0.00003   0.00021   0.00018   2.07183
   R10        2.06301  -0.00015  -0.00002  -0.00091  -0.00093   2.06208
   R11        2.43930  -0.00079   0.02055  -0.04743  -0.02688   2.41242
   R12        2.61489   0.02150   0.01408   0.04494   0.05901   2.67390
   R13        2.48447   0.00676  -0.00484   0.02741   0.02356   2.50802
    A1        2.11675   0.00286   0.00074   0.01799   0.01832   2.13507
    A2        2.11722   0.00109  -0.00003   0.00180   0.00137   2.11859
    A3        2.04855  -0.00403  -0.00072  -0.02160  -0.02272   2.02583
    A4        2.02886   0.01538   0.00464   0.04710   0.05164   2.08050
    A5        1.98110  -0.00434  -0.00632   0.00729   0.00118   1.98228
    A6        1.98718  -0.00293   0.03823   0.00253   0.04253   2.02971
    A7        2.26833  -0.01095   0.00093  -0.05174  -0.05120   2.21712
    A8        1.93286  -0.01065  -0.02996  -0.06349  -0.09417   1.83869
    A9        1.88319   0.00142  -0.00167   0.00838   0.00671   1.88991
   A10        1.96341  -0.00052   0.00038  -0.00386  -0.00350   1.95991
   A11        1.94291  -0.00099   0.00013  -0.00843  -0.00831   1.93460
   A12        1.88347  -0.00012   0.00077   0.00215   0.00293   1.88640
   A13        1.89173  -0.00024   0.00007   0.00047   0.00055   1.89228
   A14        1.89694   0.00048   0.00034   0.00177   0.00207   1.89901
   A15        2.11543   0.00285  -0.00010  -0.00594  -0.00631   2.10912
   A16        1.97954  -0.00234  -0.01313  -0.00738  -0.02087   1.95868
   A17        2.12328  -0.00140   0.01457   0.00725   0.02207   2.14535
   A18        1.87535   0.00705   0.04361   0.06371   0.10783   1.98317
   A19        1.88669  -0.00299  -0.04644  -0.04216  -0.08937   1.79732
   A20        1.86575   0.00278   0.00340   0.01289   0.01630   1.88205
    D1       -0.23220  -0.00038  -0.00813  -0.03588  -0.04435  -0.27655
    D2        3.00492  -0.00057   0.00082  -0.05840  -0.05893   2.94599
    D3        2.04600  -0.00393  -0.01055  -0.08126  -0.09008   1.95591
    D4        2.94833   0.00190  -0.00805   0.01636   0.00795   2.95628
    D5       -0.09774   0.00170   0.00089  -0.00615  -0.00664  -0.10437
    D6       -1.05666  -0.00166  -0.01048  -0.02902  -0.03779  -1.09445
    D7       -0.93194  -0.00101   0.01163  -0.04234  -0.03127  -0.96321
    D8        1.14364  -0.00055   0.01172  -0.03652  -0.02537   1.11827
    D9       -3.00557  -0.00103   0.01252  -0.04321  -0.03124  -3.03681
   D10        2.09529   0.00006   0.00065  -0.01000  -0.00987   2.08542
   D11       -2.11232   0.00053   0.00074  -0.00418  -0.00397  -2.11629
   D12        0.02166   0.00004   0.00154  -0.01087  -0.00984   0.01182
   D13        3.04765  -0.00068  -0.01970  -0.02719  -0.04581   3.00184
   D14       -1.15995  -0.00022  -0.01961  -0.02137  -0.03991  -1.19986
   D15        0.97402  -0.00070  -0.01881  -0.02806  -0.04577   0.92825
   D16       -0.04926   0.00584  -0.01064   0.06461   0.05411   0.00485
   D17        2.71879   0.00297  -0.00387   0.04953   0.04524   2.76403
   D18       -3.07900   0.00373  -0.00026   0.03073   0.03078  -3.04822
   D19       -0.31095   0.00086   0.00651   0.01566   0.02191  -0.28904
   D20        3.11191  -0.00040  -0.01089   0.00888  -0.00007   3.11184
   D21       -0.40511  -0.00226  -0.00762  -0.00946  -0.01624  -0.42135
   D22        1.77477   0.00377   0.02406   0.04682   0.06811   1.84288
         Item               Value     Threshold  Converged?
 Maximum Force            0.038031     0.000450     NO 
 RMS     Force            0.007082     0.000300     NO 
 Maximum Displacement     0.160200     0.001800     NO 
 RMS     Displacement     0.053144     0.001200     NO 
 Predicted change in Energy=-4.665351D-03
 GradGradGradGradGradGradGradGradGradGradGradGradGradGradGradGradGradGrad

                          Input orientation:                          
 ---------------------------------------------------------------------
 Center     Atomic      Atomic             Coordinates (Angstroms)
 Number     Number       Type             X           Y           Z
 ---------------------------------------------------------------------
      1          7           0        1.191309   -1.387341    0.250628
      2          1           0        2.171135   -1.604458    0.174595
      3          6           0        0.695044   -0.149100   -0.030043
      4          1           0       -2.256894    1.154938   -0.005485
      5          6           0        1.634850    1.011524   -0.116347
      6          6           0       -0.772797   -0.108054   -0.110458
      7          1           0        2.202416    1.064914    0.820205
      8          1           0        2.349083    0.907887   -0.941661
      9          1           0        1.086537    1.946694   -0.241018
     10          8           0       -1.468381   -1.161601    0.079016
     11          1           0        0.505788   -2.105060    0.462736
     12          8           0       -1.283388    1.196551    0.088126
     13          1           0       -0.234916   -0.036468   -1.321652
 ---------------------------------------------------------------------
                    Distance matrix (angstroms):
                    1          2          3          4          5
     1  N    0.000000
     2  H    1.006470   0.000000
     3  C    1.363193   2.082976   0.000000
     4  H    4.291722   5.220550   3.227237   0.000000
     5  C    2.466973   2.686189   1.495905   3.895963   0.000000
     6  C    2.371638   3.314697   1.470614   1.951593   2.655231
     7  H    2.712989   2.746514   2.113983   4.536002   1.096408
     8  H    2.833737   2.754917   2.164281   4.706643   1.096364
     9  H    3.371719   3.736277   2.142459   3.443964   1.091207
    10  O    2.674763   3.667606   2.391121   2.448519   3.793505
    11  H    1.014914   1.762672   2.025939   4.298748   3.364999
    12  O    3.581484   4.448242   2.395607   0.978882   2.931237
    13  H    2.516155   3.238275   1.595545   2.690752   2.459080
                    6          7          8          9         10
     6  C    0.000000
     7  H    3.330748   0.000000
     8  H    3.386616   1.774920   0.000000
     9  H    2.774196   1.774519   1.778776   0.000000
    10  O    1.276596   4.356774   4.460672   4.036277   0.000000
    11  H    2.439542   3.613180   3.801042   4.153223   2.221418
    12  O    1.414968   3.564280   3.786639   2.507508   2.365415
    13  H    1.327189   3.426541   2.777274   2.616666   2.179273
                   11         12         13
    11  H    0.000000
    12  O    3.773873   0.000000
    13  H    2.830505   2.146417   0.000000
 Stoichiometry    C3H7NO2
 Framework group  C1[X(C3H7NO2)]
 Deg. of freedom    33
 Full point group                 C1      NOp   1
 Largest Abelian subgroup         C1      NOp   1
 Largest concise Abelian subgroup C1      NOp   1
                         Standard orientation:                         
 ---------------------------------------------------------------------
 Center     Atomic      Atomic             Coordinates (Angstroms)
 Number     Number       Type             X           Y           Z
 ---------------------------------------------------------------------
      1          7           0        1.198055    1.294367   -0.129118
      2          1           0        2.183950    1.475296   -0.038256
      3          6           0        0.665949    0.051335    0.044170
      4          1           0       -2.323120   -1.158805   -0.082674
      5          6           0        1.571308   -1.139333    0.024960
      6          6           0       -0.802352    0.046284    0.126474
      7          1           0        2.135771   -1.127108   -0.914903
      8          1           0        2.289414   -1.129215    0.853353
      9          1           0        0.995882   -2.065416    0.069551
     10          8           0       -1.466888    1.132228    0.032583
     11          1           0        0.533663    2.047603   -0.274958
     12          8           0       -1.351389   -1.220472   -0.183402
     13          1           0       -0.265149   -0.146694    1.324640
 ---------------------------------------------------------------------
 Rotational constants (GHZ):      4.9319554      3.3253563      2.0578265
 Standard basis: 6-31G (6D, 7F)
 There are    68 symmetry adapted cartesian basis functions of A   symmetry.
 There are    68 symmetry adapted basis functions of A   symmetry.
    68 basis functions,   160 primitive gaussians,    68 cartesian basis functions
    24 alpha electrons       24 beta electrons
       nuclear repulsion energy       247.7553382777 Hartrees.
 NAtoms=   13 NActive=   13 NUniq=   13 SFac= 1.00D+00 NAtFMM=   60 NAOKFM=F Big=F
 Integral buffers will be    131072 words long.
 Raffenetti 2 integral format.
 Two-electron integral symmetry is turned on.
 One-electron integrals computed using PRISM.
 NBasis=    68 RedAO= T EigKep=  3.45D-03  NBF=    68
 NBsUse=    68 1.00D-06 EigRej= -1.00D+00 NBFU=    68
 Initial guess from the checkpoint file:  "Ala-S-opt-freq-p3-6-31g.chk"
 B after Tr=     0.000000    0.000000    0.000000
         Rot=    0.999967   -0.000432   -0.000824    0.008052 Ang=  -0.93 deg.
 ExpMin= 1.61D-01 ExpMax= 5.48D+03 ExpMxC= 8.25D+02 IAcc=1 IRadAn=         1 AccDes= 0.00D+00
 Harris functional with IExCor=  402 and IRadAn=       1 diagonalized for initial guess.
 HarFok:  IExCor=  402 AccDes= 0.00D+00 IRadAn=         1 IDoV= 1 UseB2=F ITyADJ=14
 ICtDFT=  3500011 ScaDFX=  1.000000  1.000000  1.000000  1.000000
 FoFCou: FMM=F IPFlag=           0 FMFlag=      100000 FMFlg1=           0
         NFxFlg=           0 DoJE=T BraDBF=F KetDBF=T FulRan=T
         wScrn=  0.000000 ICntrl=     500 IOpCl=  0 I1Cent=   200000004 NGrid=           0
         NMat0=    1 NMatS0=      1 NMatT0=    0 NMatD0=    1 NMtDS0=    0 NMtDT0=    0
 Petite list used in FoFCou.
 Keep R1 ints in memory in canonical form, NReq=3676491.
 Requested convergence on RMS density matrix=1.00D-08 within 128 cycles.
 Requested convergence on MAX density matrix=1.00D-06.
 Requested convergence on             energy=1.00D-06.
 No special actions if energy rises.
 Integral accuracy reduced to 1.0D-05 until final iterations.
 Initial convergence to 1.0D-05 achieved.  Increase integral accuracy.
 SCF Done:  E(RB3LYP) =  -323.554720618     A.U. after   13 cycles
            NFock= 13  Conv=0.82D-08     -V/T= 2.0056
 Calling FoFJK, ICntrl=      2127 FMM=F ISym2X=0 I1Cent= 0 IOpClX= 0 NMat=1 NMatS=1 NMatT=0.
 ***** Axes restored to original set *****
 -------------------------------------------------------------------
 Center     Atomic                   Forces (Hartrees/Bohr)
[...]
 Vib (V=0)    2  0.168887D+01          0.227596          0.524060
 Vib (V=0)    3  0.145959D+01          0.164230          0.378153
 Vib (V=0)    4  0.138760D+01          0.142263          0.327573
 Vib (V=0)    5  0.125832D+01          0.099791          0.229778
 Vib (V=0)    6  0.115547D+01          0.062757          0.144504
 Vib (V=0)    7  0.114236D+01          0.057802          0.133093
 Vib (V=0)    8  0.109549D+01          0.039610          0.091206
 Vib (V=0)    9  0.106666D+01          0.028027          0.064534
 Electronic      0.100000D+01          0.000000          0.000000
 Translational   0.330285D+08          7.518889         17.312882
 Rotational      0.147410D+06          5.168527         11.900973
 ***** Axes restored to original set *****
 -------------------------------------------------------------------
 Center     Atomic                   Forces (Hartrees/Bohr)
 Number     Number              X              Y              Z
 -------------------------------------------------------------------
      1        7           0.000023770   -0.000058397    0.000037737
      2        1          -0.000012973    0.000008183   -0.000009062
      3        6          -0.000032245    0.000073858   -0.000012023
      4        1           0.000006166   -0.000000154    0.000003066
      5        6           0.000005208   -0.000004292    0.000000056
      6        6           0.000026242   -0.000043403    0.000032697
      7        1          -0.000002055    0.000002929   -0.000000221
      8        1          -0.000003768   -0.000003427    0.000004012
      9        1           0.000000319    0.000002847    0.000003152
     10        8           0.000006398    0.000017861   -0.000020093
     11        1           0.000003267    0.000000672   -0.000014018
     12        8          -0.000006862    0.000004993   -0.000005127
     13        1          -0.000013467   -0.000001670   -0.000020177
 -------------------------------------------------------------------
 Cartesian Forces:  Max     0.000073858 RMS     0.000021378
 FormGI is forming the generalized inverse of G from B-inverse, IUseBI=4.

 GradGradGradGradGradGradGradGradGradGradGradGradGradGradGradGradGradGrad
 Berny optimization.
 Internal  Forces:  Max     0.000056408 RMS     0.000010933
 Search for a local minimum.
 Step number   1 out of a maximum of    2
 All quantities printed in internal units (Hartrees-Bohrs-Radians)
 Second derivative matrix not updated -- analytic derivatives used.
 ITU=  0
     Eigenvalues ---    0.00069   0.00284   0.00341   0.00740   0.01405
     Eigenvalues ---    0.03541   0.04764   0.04872   0.05178   0.05803
     Eigenvalues ---    0.07891   0.11428   0.12636   0.13001   0.13886
     Eigenvalues ---    0.15054   0.15265   0.15904   0.16162   0.19771
     Eigenvalues ---    0.22929   0.26300   0.29650   0.31972   0.34196
     Eigenvalues ---    0.34825   0.35116   0.37758   0.39496   0.47593
     Eigenvalues ---    0.47639   0.48541   0.78049
 Angle between quadratic step and forces=  78.07 degrees.
 Linear search not attempted -- first point.
 Iteration  1 RMS(Cart)=  0.00066389 RMS(Int)=  0.00000060
 Iteration  2 RMS(Cart)=  0.00000057 RMS(Int)=  0.00000022
 Variable       Old X    -DE/DX   Delta X   Delta X   Delta X     New X
                                 (Linear)    (Quad)   (Total)
    R1        1.90344  -0.00001   0.00000   0.00005   0.00005   1.90349
    R2        2.73853   0.00006   0.00000   0.00033   0.00033   2.73886
    R3        1.90740  -0.00001   0.00000   0.00005   0.00005   1.90745
    R4        2.91815   0.00000   0.00000  -0.00013  -0.00013   2.91802
    R5        2.86536  -0.00003   0.00000  -0.00011  -0.00011   2.86526
    R6        2.09660   0.00002   0.00000   0.00010   0.00010   2.09670
    R7        1.85533  -0.00001   0.00000  -0.00001  -0.00001   1.85532
    R8        2.06694   0.00000   0.00000  -0.00001  -0.00001   2.06693
    R9        2.06986   0.00000   0.00000  -0.00001  -0.00001   2.06985
   R10        2.06597   0.00000   0.00000   0.00000   0.00000   2.06596
   R11        2.33334  -0.00003   0.00000  -0.00005  -0.00005   2.33329
   R12        2.60186   0.00001   0.00000   0.00006   0.00006   2.60192
   R13        3.95838   0.00000   0.00000  -0.00018  -0.00018   3.95820
    A1        2.04810  -0.00001   0.00000  -0.00054  -0.00054   2.04756
    A2        2.03347   0.00000   0.00000  -0.00041  -0.00041   2.03306
    A3        2.03290   0.00000   0.00000  -0.00035  -0.00035   2.03255
    A4        1.94977   0.00000   0.00000  -0.00019  -0.00019   1.94958
    A5        1.88525  -0.00001   0.00000  -0.00006  -0.00006   1.88519
    A6        1.97627   0.00000   0.00000   0.00005   0.00005   1.97632
    A7        1.94927   0.00001   0.00000   0.00021   0.00021   1.94948
    A8        1.87210   0.00000   0.00000   0.00012   0.00012   1.87222
    A9        1.91630   0.00000   0.00000   0.00005   0.00005   1.91635
   A10        1.90544   0.00000   0.00000   0.00000   0.00000   1.90544
   A11        1.94176   0.00000   0.00000  -0.00001  -0.00001   1.94175
   A12        1.88539   0.00000   0.00000   0.00000   0.00000   1.88539
   A13        1.91449   0.00000   0.00000  -0.00007  -0.00007   1.91442
   A14        1.89948   0.00000   0.00000   0.00003   0.00003   1.89951
   A15        2.19521   0.00001   0.00000   0.00008   0.00008   2.19529
   A16        1.95786  -0.00001   0.00000  -0.00008  -0.00008   1.95778
   A17        2.12969   0.00000   0.00000  -0.00001  -0.00001   2.12968
   A18        2.30434   0.00000   0.00000  -0.00056  -0.00056   2.30378
   A19        1.69079  -0.00001   0.00000   0.00026   0.00026   1.69104
   A20        1.92245   0.00000   0.00000   0.00000   0.00000   1.92244
    D1       -1.27469   0.00000   0.00000   0.00026   0.00026  -1.27443
    D2        2.85803  -0.00001   0.00000   0.00016   0.00017   2.85819
    D3        0.84128   0.00000   0.00000   0.00031   0.00031   0.84158
    D4        2.47807   0.00000   0.00000   0.00249   0.00249   2.48056
    D5        0.32759   0.00000   0.00000   0.00240   0.00240   0.32999
    D6       -1.68916   0.00001   0.00000   0.00254   0.00254  -1.68662
    D7       -1.03068   0.00000   0.00000  -0.00072  -0.00072  -1.03140
    D8        1.03319   0.00000   0.00000  -0.00069  -0.00069   1.03250
    D9        3.12984   0.00000   0.00000  -0.00066  -0.00066   3.12918
   D10        1.08302  -0.00001   0.00000  -0.00079  -0.00079   1.08224
   D11       -3.13629  -0.00001   0.00000  -0.00076  -0.00076  -3.13705
   D12       -1.03964  -0.00001   0.00000  -0.00073  -0.00073  -1.04037
   D13        3.07719   0.00000   0.00000  -0.00074  -0.00074   3.07645
   D14       -1.14212   0.00000   0.00000  -0.00071  -0.00071  -1.14283
   D15        0.95453   0.00000   0.00000  -0.00068  -0.00068   0.95385
   D16       -0.12606   0.00000   0.00000  -0.00118  -0.00118  -0.12724
   D17        3.04673   0.00000   0.00000  -0.00081  -0.00081   3.04592
   D18       -2.27684   0.00000   0.00000  -0.00103  -0.00103  -2.27787
   D19        0.89595   0.00000   0.00000  -0.00066  -0.00066   0.89529
   D20        3.11993   0.00000   0.00000  -0.00022  -0.00022   3.11971
   D21        0.00819   0.00001   0.00000   0.00013   0.00013   0.00832
   D22        2.63578  -0.00001   0.00000  -0.00051  -0.00051   2.63527
         Item               Value     Threshold  Converged?
 Maximum Force            0.000056     0.000450     YES
 RMS     Force            0.000011     0.000300     YES
 Maximum Displacement     0.002279     0.001800     NO 
 RMS     Displacement     0.000664     0.001200     YES
 Predicted change in Energy=-4.465309D-08
 GradGradGradGradGradGradGradGradGradGradGradGradGradGradGradGradGradGrad

 1\1\GINC-KALI\Freq\RB3LYP\6-31G\C3H7N1O2\ROOT\10-Apr-2016\0\\#N Geom=A
 llCheck Guess=TCheck SCRF=Check GenChk RB3LYP/6-31G Freq\\Ala-S-opt-fr
 eq-p3-6-31g\\0,1\N,1.200770486,-1.4129503494,0.1243567249\H,2.02216146
 61,-1.7803451631,-0.3283031762\C,0.633482597,-0.1928963268,-0.41391174
 57\H,-2.268314779,1.1984551602,0.1196341915\C,1.5032203556,1.038170905
 ,-0.0782951192\C,-0.7741545129,-0.0498297792,0.131258268\H,1.598385058
 4,1.139836885,1.0065826206\H,2.5061261329,0.8943393595,-0.4944967232\H
 ,1.0748093734,1.9523380689,-0.4977999163\O,-1.3800020221,-0.895367756,
 0.7965608634\H,0.547502741,-2.0896120183,0.4906363198\O,-1.3529760189,
 1.145608282,-0.2314978918\H,0.5087756524,-0.2173217577,-1.5160830157\\
 Version=ES64L-G09RevD.01\State=1-A\HF=-323.6323688\RMSD=3.210e-09\RMSF
 =2.138e-05\ZeroPoint=0.107317\Thermal=0.1144016\Dipole=0.0951647,0.249
 5269,-0.6025189\DipoleDeriv=-0.4450529,0.051891,-0.2980196,-0.0163673,
 -0.6837768,-0.0195371,-0.2620022,-0.0267394,-0.722098,0.1725494,0.0536
 931,0.1248837,0.084991,0.1637327,0.053609,0.1752648,0.0166893,0.254879
 2,0.0247731,-0.0849141,0.2501269,-0.1563331,0.5708359,-0.0857347,0.265
 1966,-0.0053905,0.3737824,0.1887468,-0.0157552,0.0944321,-0.0839804,0.
 3352315,0.0598873,0.1262516,0.0351792,0.3349553,0.084342,-0.0463152,-0
 .0088908,0.0476707,-0.0142902,-0.0274046,-0.0028984,-0.0121646,0.07459
 45,1.1446256,-0.1331399,-0.2546476,-0.3560414,1.2874753,-0.3786791,-0.
 2355364,-0.4802598,0.5671836,0.0605485,-0.0201004,-0.0044611,-0.024148
 6,0.0582204,-0.0023599,-0.0422426,-0.0499632,-0.118927,-0.14798,-0.005
 9309,0.0766287,0.0175013,0.0524567,-0.0291053,0.085412,-0.0232639,0.03
 81137,0.0582106,0.0603341,-0.0430018,0.0337035,-0.0854006,0.0462668,-0
 .0376531,0.0697918,0.0411196,-0.7218356,-0.2075398,0.2297214,0.0569449
 ,-0.7829344,0.1842488,0.1461101,0.3050815,-0.5256941,0.1974226,-0.0696
 422,0.0597857,-0.0197706,0.1435762,0.0490959,0.0140377,0.0018048,0.345
 7163,-0.5910336,0.4037313,-0.1657148,0.3762874,-1.0014844,0.1231539,-0
 .145992,0.1222623,-0.4534703,-0.0253167,0.0136883,-0.0608429,0.0395426
 ,-0.0436423,0.026559,-0.0859481,0.0469725,-0.2101552\Polar=47.1791301,
 -2.0030475,46.3495401,-4.7872874,-6.2216901,33.9093889\PG=C01 [X(C3H7N
 1O2)]\NImag=0\\0.68228407,-0.04285485,0.60214506,-0.28137907,-0.154028
 61,0.25579902,-0.31211411,0.11535977,0.15876737,0.33332030,0.13198473,
 -0.11379546,-0.04504437,-0.13250003,0.11309746,0.19269544,-0.05020871,
 -0.10674440,-0.17536757,0.04842507,0.10949012,-0.11990329,0.05763670,0
 .00149434,-0.00849240,0.02470031,-0.01949541,0.49073554,0.03733192,-0.
 18932811,0.04672561,0.00185161,-0.00804673,0.01126399,-0.02322831,0.49
 736193,-0.00122197,0.07149131,-0.09256533,0.00764677,-0.01846772,0.003
 22888,-0.00530178,-0.02667510,0.52980546,-0.00043675,-0.00044473,0.000
 85859,0.00012967,0.00031477,-0.00032719,0.00334634,0.00351319,-0.00200
 637,0.41403881,0.00121297,0.00030513,-0.00092656,0.00014497,-0.0003423
 3,0.00038732,0.00017190,-0.00502799,0.00544085,-0.04270231,0.04684733,
 -0.00025520,0.00021661,0.00010412,0.00005407,0.00015487,0.00015326,0.0
 0061927,0.00261069,0.00373922,-0.14392196,0.00059334,0.07255887,0.0098
 9260,0.01314762,0.00017868,0.00067383,0.00119612,-0.00003484,-0.111027
 14,-0.04297090,-0.01836592,0.00069745,-0.00035215,0.00038784,0.5439665
 7,-0.01469961,-0.03962370,0.00642182,0.00031298,0.00068341,-0.00066566
 ,-0.03234304,-0.12071353,-0.02117391,-0.00018644,0.00000902,0.00051437
 ,-0.06523615,0.50706801,0.00770061,0.01527618,0.00380988,-0.00034058,-
 0.00029831,-0.00001424,-0.01569891,-0.02199517,-0.08327187,-0.00006205
 ,0.00027463,-0.00025794,-0.01052928,-0.02991668,0.58504007,-0.02573627
 ,0.01369717,0.00661420,-0.00076755,-0.00152367,-0.00086951,-0.16398488
 ,0.01935443,0.02865140,-0.03002077,0.05394892,-0.01344864,-0.02649932,
 -0.01155375,0.00804848,0.64694772,0.03448034,-0.01698224,-0.00904789,0
 .00066312,-0.00530705,0.00478786,0.00928744,-0.07406326,-0.01136817,0.
 00340244,-0.00644050,0.00348451,-0.02852393,0.00453529,0.01096268,0.06
 144602,0.65203503,-0.01211067,0.00276901,0.00150823,-0.00063318,0.0033
 3796,-0.00266459,0.03002089,-0.01647539,-0.09360911,0.01229350,-0.0177
 1662,0.00690467,-0.00673962,0.00699069,0.00445535,-0.21001675,-0.23874
 890,0.41948139,0.00023972,0.00210555,0.00161251,0.00003672,0.00007259,
 0.00023705,-0.00470741,-0.00404121,-0.02231945,-0.00020747,-0.00004865
 ,-0.00010549,-0.05081889,-0.00089539,-0.01887640,0.00144602,-0.0002567
 7,-0.00246157,0.05469577,0.00140980,0.00339492,0.00174875,-0.00016419,
 -0.00026063,-0.00034559,-0.00577382,-0.00546352,-0.02858179,0.00000733
 ,0.00004778,-0.00009987,0.00027584,-0.05082443,-0.01953235,0.00178971,
 0.00111199,-0.00138604,0.00517153,0.05292603,0.00140014,0.00051139,0.0
 0255185,-0.00018031,-0.00004308,-0.00023625,-0.00155454,0.00128344,-0.
 00805827,-0.00015320,-0.00017569,-0.00015817,-0.02011118,-0.02295342,-
 0.31468834,0.00140543,-0.00036175,-0.00021133,0.02338966,0.02565507,0.
 34204586,0.00227719,0.00112480,-0.00097212,-0.00008207,-0.00112182,-0.
 00002228,-0.02023148,0.00285959,0.00783483,0.00010737,-0.00023357,0.00
 003136,-0.26733124,0.03447862,0.09262749,0.00132300,-0.00211517,-0.002
 70654,0.00251718,-0.00007929,-0.00250544,0.29358687,0.00059921,0.00277
 083,-0.00042711,0.00002367,-0.00075371,-0.00040692,-0.03037333,-0.0008
 7202,0.00916475,0.00010082,0.00012972,-0.00000731,0.03638910,-0.053240
 79,-0.01349103,-0.00006940,-0.00626367,-0.00235178,0.00294032,-0.00057
 611,-0.00049531,-0.03567513,0.05834159,-0.00045574,0.00074357,-0.00051
 127,0.00035235,0.00044207,0.00042823,-0.00880764,-0.00056350,0.0030119
 6,-0.00004573,-0.00015680,-0.00009875,0.09343475,-0.01410636,-0.089072
 61,-0.00094938,-0.00192581,-0.00019489,0.03207393,-0.00523254,-0.01249
 852,-0.10166051,0.01759799,0.09250830,-0.00142009,-0.00377657,0.000396
 71,-0.00020540,-0.00057775,-0.00031920,0.00705687,-0.01656544,0.008134
 22,-0.00006500,0.00019318,-0.00009908,-0.09270836,0.09159356,-0.042982
 74,0.00145459,-0.00129432,0.00095820,-0.00115558,0.00117736,0.00055557
 ,-0.01127667,0.02600354,-0.01277003,0.09900281,-0.00406301,-0.00520972
 ,0.00055938,0.00015707,0.00014772,0.00006681,0.01271610,-0.01848770,0.
 01233445,0.00016157,0.00061108,-0.00010648,0.08677088,-0.23501877,0.08
 421955,0.00201830,-0.00271870,0.00110705,-0.00195890,0.00387885,-0.002
 70493,0.00062740,-0.00300198,0.00190559,-0.09711244,0.25810473,-0.0011
 7127,-0.00025624,0.00177947,0.00004154,0.00019508,-0.00007018,0.003635
 16,-0.00743610,0.00159706,0.00004642,-0.00006758,0.00012254,-0.0413521
 5,0.08567983,-0.09221875,-0.00075449,0.00185084,-0.00010357,-0.0134000
 7,0.02864879,-0.01057245,0.00592645,-0.01235929,0.00484062,0.04654381,
 -0.09451299,0.09458594,-0.00184587,-0.00151759,0.00167278,-0.00007696,
 -0.00108627,0.00068680,-0.01399003,-0.02436115,0.02755224,0.00298796,-
 0.00737553,0.00010493,-0.00217133,0.00282962,0.00255222,-0.25363421,-0
 .17668442,0.16331114,-0.00006595,-0.00016836,-0.00073769,-0.00104170,-
 0.00155844,-0.00060942,0.00006042,-0.00031604,0.00012029,0.24362124,0.
 00611817,0.00048750,-0.00249419,0.00096690,0.00153761,-0.00128932,-0.0
 0322202,-0.00147441,0.01523292,-0.00583423,0.00290757,-0.00186155,0.00
 220814,0.00105707,-0.00024290,-0.18875252,-0.34483209,0.21189618,-0.00
 005420,-0.00046462,-0.00034487,-0.00053226,0.00036944,-0.00000983,0.00
 049209,0.00093101,-0.00038968,0.20611749,0.40785784,-0.00137851,0.0012
 7250,0.00228774,-0.00044404,-0.00038365,0.00073657,0.01892066,0.024073
 42,0.00350228,-0.00080867,-0.00120916,-0.00479931,0.00258447,-0.004712
 03,-0.00363584,0.16819607,0.20852721,-0.24115965,0.00045077,0.00057476
 ,0.00042035,0.00118374,0.00161675,0.00068149,-0.00037937,-0.00030720,0
 .00022448,-0.19049061,-0.27293247,0.24209774,-0.22580338,-0.16377168,0
 .12388481,-0.01330300,-0.02320057,0.00387365,0.01112607,0.01232396,-0.
 01112334,-0.00024714,0.00030995,-0.00002653,-0.00106836,0.00108612,-0.
 00017487,0.00112154,0.00777757,-0.00284404,0.00001398,-0.00017353,0.00
 006501,-0.00003426,0.00005186,-0.00015856,0.00043519,0.00037675,0.0001
 5054,-0.00137472,-0.00300969,0.00039059,0.23015840,-0.16096158,-0.2354
 4029,0.12261418,0.01458413,0.01201967,-0.01104711,-0.02150300,-0.01902
 115,0.00448533,0.00024869,-0.00013908,0.00003388,0.00360431,-0.0048197
 4,0.00313001,-0.00128267,-0.00647186,0.00487717,-0.00001932,0.00007938
 ,-0.00015659,0.00015025,0.00044004,0.00005181,-0.00110707,-0.00148573,
 -0.00049758,-0.00158617,0.00364308,-0.00219415,0.16876244,0.24896173,0
 .09938478,0.09950449,-0.06006314,0.00945004,0.01163581,-0.00628220,0.0
 0486806,0.01097738,-0.00853904,0.00013054,-0.00012010,0.00008770,0.000
 21406,-0.00327262,0.00018972,0.00037011,-0.00074939,0.00359541,-0.0001
 1963,-0.00021629,-0.00014583,0.00030762,0.00028951,-0.00009958,-0.0002
 3723,-0.00126395,0.00014794,0.00002255,-0.00047556,-0.00292210,-0.1139
 4915,-0.11988990,0.07637291,-0.00726674,-0.00008049,0.00311203,-0.0001
 7301,0.00190283,-0.00087074,-0.01858989,0.03454620,-0.00700748,-0.3904
 7993,-0.00469690,0.15745864,-0.00183719,0.00160722,0.00062308,-0.15295
 706,0.08943896,-0.00584053,-0.00005720,-0.00007585,-0.00047296,-0.0006
 6587,0.00019232,-0.00030019,-0.00186199,0.00055942,-0.00026847,0.03241
 222,-0.01241323,0.00359075,0.00056273,-0.00062501,0.00047596,0.5422256
 4,0.00256763,0.00245725,-0.00077664,0.00006239,-0.00007463,-0.00022497
 ,0.01032014,-0.00901563,0.00273464,0.04167984,-0.03885302,-0.00565327,
 -0.00059742,-0.00336805,0.00009216,0.05374480,-0.19552786,0.04799829,0
 .00053968,-0.00003909,0.00076568,0.00013443,0.00140137,0.00031848,0.00
 024675,0.00155210,-0.00113995,0.00536042,-0.07246561,0.04619308,-0.002
 98672,0.00215282,0.00069771,-0.11157073,0.31200081,0.00259887,-0.00032
 932,0.00023039,0.00017859,-0.00059161,0.00072872,0.00613483,-0.0070314
 5,0.00747161,0.13356015,0.01371690,-0.07876349,0.00122461,0.00013016,0
 .00022928,0.01231159,0.03168104,-0.07844775,0.00055348,-0.00005035,0.0
 0040372,0.00019489,0.00019960,0.00031171,0.00009388,-0.00048718,-0.000
 36292,-0.00551714,0.05434024,0.00137205,0.00140191,-0.00084421,-0.0006
 1676,-0.15099808,-0.09084896,0.14534951,-0.00016709,0.00937430,-0.0162
 4083,0.00105398,-0.00016124,-0.00018621,-0.05133828,-0.00061389,-0.012
 47315,0.00014947,-0.00057279,-0.00079921,-0.00176862,-0.00699372,-0.02
 288707,0.00130719,0.00237871,0.03676918,-0.00193689,-0.00339653,-0.001
 10049,0.00085169,0.00137544,-0.00010383,0.00068320,0.00006290,0.000482
 25,-0.00488108,-0.00208464,-0.00181586,-0.00158705,-0.00026500,-0.0009
 1770,-0.00131171,0.00049880,-0.00173761,0.05894518,0.00687427,-0.01118
 118,0.03467562,-0.00146240,0.00109467,-0.00074277,0.00161093,-0.045847
 88,-0.01461754,-0.00026094,-0.00005471,0.00012021,-0.00591145,-0.00574
 381,-0.02847876,-0.00281735,0.00092493,-0.00229762,-0.00355523,-0.0038
 1055,-0.00097994,0.00038216,0.00125528,0.00093533,0.00072713,0.0006971
 2,0.00028487,0.00034644,0.00044561,-0.00051907,0.00245354,0.00008115,0
 .00288292,0.00121527,-0.00022045,0.00011513,0.00039764,0.06235982,-0.0
 0580742,0.01303783,-0.00818655,0.00047495,0.00063788,0.00124608,-0.014
 83491,-0.01675782,-0.26631285,0.00043594,-0.00004052,0.00040727,-0.000
 89142,-0.00293620,-0.01056471,0.00044149,0.00090777,-0.01955417,-0.001
 03479,-0.00118255,0.00114738,-0.00023949,0.00067016,0.00069330,0.00010
 524,-0.00081008,0.00002984,0.00133190,-0.00142896,0.00119419,-0.001490
 02,-0.00056286,-0.00172503,0.00049798,-0.00015626,0.00209393,0.0210105
 2,0.00862162,0.29953131\\-0.00002377,0.00005840,-0.00003774,0.00001297
 ,-0.00000818,0.00000906,0.00003225,-0.00007386,0.00001202,-0.00000617,
 0.00000015,-0.00000307,-0.00000521,0.00000429,-0.00000006,-0.00002624,
 0.00004340,-0.00003270,0.00000206,-0.00000293,0.00000022,0.00000377,0.
 00000343,-0.00000401,-0.00000032,-0.00000285,-0.00000315,-0.00000640,-
 0.00001786,0.00002009,-0.00000327,-0.00000067,0.00001402,0.00000686,-0
 .00000499,0.00000513,0.00001347,0.00000167,0.00002018\\\@


 WORK FAITHFULLY FOR EIGHT HOURS A DAY AND DON'T WORRY.
 IN TIME YOU MAY BECOME BOSS AND WORK TWELVE HOURS A DAY
 AND HAVE ALL THE WORRY.
 Job cpu time:       0 days  0 hours  0 minutes 58.8 seconds.
 File lengths (MBytes):  RWF=     13 Int=      0 D2E=      0 Chk=      2 Scr=      1
 Normal termination of Gaussian 09 at Sun Apr 10 11:10:04 2016.
