 Entering Link 1 = D:\Gaussian\G09W\l1.exe PID=     35008.
  
 Copyright (c) 1988,1990,1992,1993,1995,1998,2003,2009,2013,
            Gaussian, Inc.  All Rights Reserved.
  
 This is part of the Gaussian(R) 09 program.  It is based on
 the Gaussian(R) 03 system (copyright 2003, Gaussian, Inc.),
 the Gaussian(R) 98 system (copyright 1998, Gaussian, Inc.),
 the Gaussian(R) 94 system (copyright 1995, Gaussian, Inc.),
 the Gaussian 92(TM) system (copyright 1992, Gaussian, Inc.),
 the Gaussian 90(TM) system (copyright 1990, Gaussian, Inc.),
 the Gaussian 88(TM) system (copyright 1988, Gaussian, Inc.),
 the Gaussian 86(TM) system (copyright 1986, Carnegie Mellon
 University), and the Gaussian 82(TM) system (copyright 1983,
 Carnegie Mellon University). Gaussian is a federally registered
 trademark of Gaussian, Inc.
  
 This software contains proprietary and confidential information,
 including trade secrets, belonging to Gaussian, Inc.
  
 This software is provided under written license and may be
 used, copied, transmitted, or stored only in accord with that
 written license.
  
 The following legend is applicable only to US Government
 contracts under FAR:
  
                    RESTRICTED RIGHTS LEGEND
  
 Use, reproduction and disclosure by the US Government is
 subject to restrictions as set forth in subparagraphs (a)
 and (c) of the Commercial Computer Software - Restricted
 Rights clause in FAR 52.227-19.
  
 Gaussian, Inc.
 340 Quinnipiac St., Bldg. 40, Wallingford CT 06492
  
  
 ---------------------------------------------------------------
 Warning -- This program may not be used in any manner that
 competes with the business of Gaussian, Inc. or will provide
 assistance to any competitor of Gaussian, Inc.  The licensee
 of this program is prohibited from giving any competitor of
 Gaussian, Inc. access to this program.  By using this program,
 the user acknowledges that Gaussian, Inc. is engaged in the
 business of creating and licensing software in the field of
 computational chemistry and represents and warrants to the
 licensee that it is not a competitor of Gaussian, Inc. and that
 it will not use this program in any manner prohibited above.
 ---------------------------------------------------------------
  

 Cite this work as:
 Gaussian 09, Revision D.01,
 M. J. Frisch, G. W. Trucks, H. B. Schlegel, G. E. Scuseria, 
 M. A. Robb, J. R. Cheeseman, G. Scalmani, V. Barone, B. Mennucci, 
 G. A. Petersson, H. Nakatsuji, M. Caricato, X. Li, H. P. Hratchian, 
 A. F. Izmaylov, J. Bloino, G. Zheng, J. L. Sonnenberg, M. Hada, 
 M. Ehara, K. Toyota, R. Fukuda, J. Hasegawa, M. Ishida, T. Nakajima, 
 Y. Honda, O. Kitao, H. Nakai, T. Vreven, J. A. Montgomery, Jr., 
 J. E. Peralta, F. Ogliaro, M. Bearpark, J. J. Heyd, E. Brothers, 
 K. N. Kudin, V. N. Staroverov, T. Keith, R. Kobayashi, J. Normand, 
 K. Raghavachari, A. Rendell, J. C. Burant, S. S. Iyengar, J. Tomasi, 
 M. Cossi, N. Rega, J. M. Millam, M. Klene, J. E. Knox, J. B. Cross, 
 V. Bakken, C. Adamo, J. Jaramillo, R. Gomperts, R. E. Stratmann, 
 O. Yazyev, A. J. Austin, R. Cammi, C. Pomelli, J. W. Ochterski, 
 R. L. Martin, K. Morokuma, V. G. Zakrzewski, G. A. Voth, 
 P. Salvador, J. J. Dannenberg, S. Dapprich, A. D. Daniels, 
 O. Farkas, J. B. Foresman, J. V. Ortiz, J. Cioslowski, 
 and D. J. Fox, Gaussian, Inc., Wallingford CT, 2013.
 
 ******************************************
 Gaussian 09:  IA32W-G09RevD.01 24-Apr-2013
                27-Mar-2016 
 ******************************************
 %chk=D:\file\file\Asp-R-opt-6-31g.chk
 -----------------
 # opt b3lyp/6-31g
 -----------------
 1/14=-1,18=20,19=15,26=3,38=1/1,3;
 2/9=110,12=2,17=6,18=5,40=1/2;
 3/5=1,6=6,11=2,16=1,25=1,30=1,71=1,74=-5/1,2,3;
 4//1;
 5/5=2,38=5/2;
 6/7=2,8=2,9=2,10=2,28=1/1;
 7//1,2,3,16;
 1/14=-1,18=20,19=15,26=3/3(2);
 2/9=110/2;
 99//99;
 2/9=110/2;
 3/5=1,6=6,11=2,16=1,25=1,30=1,71=1,74=-5/1,2,3;
 4/5=5,16=3,69=1/1;
 5/5=2,38=5/2;
 7//1,2,3,16;
 1/14=-1,18=20,19=15,26=3/3(-5);
 2/9=110/2;
 6/7=2,8=2,9=2,10=2,19=2,28=1/1;
 99/9=1/99;
 ---------------
 Asp-R-opt-6-31g
 ---------------
 Symbolic Z-matrix:
 Charge =  0 Multiplicity = 1
 C                    -5.7483    1.92086   0.92226 
 H                    -6.37314   1.99766   0.03244 
 C                    -6.63493   2.06698   2.15441 
 H                    -7.37916   1.27066   2.16364 
 H                    -6.02215   2.00133   3.05346 
 C                    -7.33944   3.42122   2.11679 
 O                    -8.46073   3.53179   1.55639 
 C                    -5.01821   0.56492   0.92226 
 O                    -5.3747   -0.34654   0.13124 
 O                    -3.93143   0.34082   1.82426 
 H                    -3.6776   -0.5846    1.79655 
 N                    -4.75782   3.07647   0.92226 
 H                    -3.77489   2.89252   0.92226 
 H                    -5.08998   4.01969   0.92226 
 O                    -6.72501   4.56379   2.71839 
 H                    -7.37116   5.03072   3.25324 
 

 GradGradGradGradGradGradGradGradGradGradGradGradGradGradGradGradGradGrad
 Berny optimization.
 Initialization pass.
                           ----------------------------
                           !    Initial Parameters    !
                           ! (Angstroms and Degrees)  !
 --------------------------                            --------------------------
 ! Name  Definition              Value          Derivative Info.                !
 --------------------------------------------------------------------------------
 ! R1    R(1,2)                  1.09           estimate D2E/DX2                !
 ! R2    R(1,3)                  1.525          estimate D2E/DX2                !
 ! R3    R(1,8)                  1.54           estimate D2E/DX2                !
 ! R4    R(1,12)                 1.522          estimate D2E/DX2                !
 ! R5    R(3,4)                  1.09           estimate D2E/DX2                !
 ! R6    R(3,5)                  1.09           estimate D2E/DX2                !
 ! R7    R(3,6)                  1.527          estimate D2E/DX2                !
 ! R8    R(6,7)                  1.2584         estimate D2E/DX2                !
 ! R9    R(6,15)                 1.43           estimate D2E/DX2                !
 ! R10   R(8,9)                  1.2584         estimate D2E/DX2                !
 ! R11   R(8,10)                 1.43           estimate D2E/DX2                !
 ! R12   R(10,11)                0.96           estimate D2E/DX2                !
 ! R13   R(12,13)                1.0            estimate D2E/DX2                !
 ! R14   R(12,14)                1.0            estimate D2E/DX2                !
 ! R15   R(15,16)                0.96           estimate D2E/DX2                !
 ! A1    A(2,1,3)              108.6358         estimate D2E/DX2                !
 ! A2    A(2,1,8)              109.5            estimate D2E/DX2                !
 ! A3    A(2,1,12)             108.6358         estimate D2E/DX2                !
 ! A4    A(3,1,8)              111.1            estimate D2E/DX2                !
 ! A5    A(3,1,12)             107.7945         estimate D2E/DX2                !
 ! A6    A(8,1,12)             111.1            estimate D2E/DX2                !
 ! A7    A(1,3,4)              109.5            estimate D2E/DX2                !
 ! A8    A(1,3,5)              109.5            estimate D2E/DX2                !
 ! A9    A(1,3,6)              109.47           estimate D2E/DX2                !
 ! A10   A(4,3,5)              109.4424         estimate D2E/DX2                !
 ! A11   A(4,3,6)              109.4574         estimate D2E/DX2                !
 ! A12   A(5,3,6)              109.4574         estimate D2E/DX2                !
 ! A13   A(3,6,7)              120.0            estimate D2E/DX2                !
 ! A14   A(3,6,15)             120.0            estimate D2E/DX2                !
 ! A15   A(7,6,15)             120.0            estimate D2E/DX2                !
 ! A16   A(1,8,9)              120.2269         estimate D2E/DX2                !
 ! A17   A(1,8,10)             119.8865         estimate D2E/DX2                !
 ! A18   A(9,8,10)             119.8865         estimate D2E/DX2                !
 ! A19   A(8,10,11)            109.5            estimate D2E/DX2                !
 ! A20   A(1,12,13)            120.0            estimate D2E/DX2                !
 ! A21   A(1,12,14)            120.0            estimate D2E/DX2                !
 ! A22   A(13,12,14)           120.0            estimate D2E/DX2                !
 ! A23   A(6,15,16)            109.5            estimate D2E/DX2                !
 ! D1    D(2,1,3,4)             60.5121         estimate D2E/DX2                !
 ! D2    D(2,1,3,5)           -179.4879         estimate D2E/DX2                !
 ! D3    D(2,1,3,6)            -59.4879         estimate D2E/DX2                !
 ! D4    D(8,1,3,4)            -60.0            estimate D2E/DX2                !
 ! D5    D(8,1,3,5)             60.0            estimate D2E/DX2                !
 ! D6    D(8,1,3,6)           -180.0            estimate D2E/DX2                !
 ! D7    D(12,1,3,4)           178.0551         estimate D2E/DX2                !
 ! D8    D(12,1,3,5)           -61.9448         estimate D2E/DX2                !
 ! D9    D(12,1,3,6)            58.0551         estimate D2E/DX2                !
 ! D10   D(2,1,8,9)            -13.3218         estimate D2E/DX2                !
 ! D11   D(2,1,8,10)           166.6782         estimate D2E/DX2                !
 ! D12   D(3,1,8,9)            106.6782         estimate D2E/DX2                !
 ! D13   D(3,1,8,10)           -73.3218         estimate D2E/DX2                !
 ! D14   D(12,1,8,9)          -133.3218         estimate D2E/DX2                !
 ! D15   D(12,1,8,10)           46.6782         estimate D2E/DX2                !
 ! D16   D(2,1,12,13)         -120.5121         estimate D2E/DX2                !
 ! D17   D(2,1,12,14)           59.4879         estimate D2E/DX2                !
 ! D18   D(3,1,12,13)          121.9449         estimate D2E/DX2                !
 ! D19   D(3,1,12,14)          -58.0551         estimate D2E/DX2                !
 ! D20   D(8,1,12,13)            0.0            estimate D2E/DX2                !
 ! D21   D(8,1,12,14)          180.0            estimate D2E/DX2                !
 ! D22   D(1,3,6,7)             90.0            estimate D2E/DX2                !
 ! D23   D(1,3,6,15)           -90.0            estimate D2E/DX2                !
 ! D24   D(4,3,6,7)            -30.0261         estimate D2E/DX2                !
 ! D25   D(4,3,6,15)           149.9739         estimate D2E/DX2                !
 ! D26   D(5,3,6,7)           -149.9739         estimate D2E/DX2                !
 ! D27   D(5,3,6,15)            30.0261         estimate D2E/DX2                !
 ! D28   D(3,6,15,16)         -133.4352         estimate D2E/DX2                !
 ! D29   D(7,6,15,16)           46.5648         estimate D2E/DX2                !
 ! D30   D(1,8,10,11)          171.2548         estimate D2E/DX2                !
 ! D31   D(9,8,10,11)           -8.7453         estimate D2E/DX2                !
 --------------------------------------------------------------------------------
 Trust Radius=3.00D-01 FncErr=1.00D-07 GrdErr=1.00D-06
 Number of steps in this run=     79 maximum allowed number of steps=    100.
 GradGradGradGradGradGradGradGradGradGradGradGradGradGradGradGradGradGrad

                          Input orientation:                          
 ---------------------------------------------------------------------
 Center     Atomic      Atomic             Coordinates (Angstroms)
 Number     Number       Type             X           Y           Z
 ---------------------------------------------------------------------
      1          6           0       -5.748302    1.920857    0.922265
      2          1           0       -6.373135    1.997660    0.032442
      3          6           0       -6.634925    2.066979    2.154406
      4          1           0       -7.379160    1.270657    2.163638
      5          1           0       -6.022152    2.001331    3.053461
      6          6           0       -7.339443    3.421220    2.116790
      7          8           0       -8.460734    3.531791    1.556387
      8          6           0       -5.018207    0.564922    0.922265
      9          8           0       -5.374698   -0.346538    0.131237
     10          8           0       -3.931427    0.340821    1.824256
     11          1           0       -3.677604   -0.584602    1.796553
     12          7           0       -4.757823    3.076468    0.922265
     13          1           0       -3.774888    2.892517    0.922265
     14          1           0       -5.089984    4.019691    0.922265
     15          8           0       -6.725014    4.563788    2.718385
     16          1           0       -7.371164    5.030719    3.253236
 ---------------------------------------------------------------------
                    Distance matrix (angstroms):
                    1          2          3          4          5
     1  C    0.000000
     2  H    1.090000   0.000000
     3  C    1.524999   2.139175   0.000000
     4  H    2.150224   2.466296   1.090000   0.000000
     5  H    2.150225   3.041342   1.090000   1.779646   0.000000
     6  C    2.491929   2.702736   1.527000   2.151440   2.151440
     7  O    3.217841   3.005667   2.415963   2.579007   3.245030
     8  C    1.540000   2.163413   2.527474   2.759198   2.759198
     9  O    2.430306   2.549883   3.392116   3.280830   3.804087
    10  O    2.571214   3.452196   3.224520   3.587011   2.939282
    11  H    3.365932   4.128687   3.988069   4.156712   3.709956
    12  N    1.522000   2.136550   2.461859   3.416631   2.701193
    13  H    2.199656   2.888502   3.221723   4.142730   3.222795
    14  H    2.199656   2.554774   2.778146   3.786624   3.079726
    15  O    3.341421   3.731370   2.561296   3.402993   2.678147
    16  H    4.211691   4.535308   3.245493   3.914760   3.322188
                    6          7          8          9         10
     6  C    0.000000
     7  O    1.258400   0.000000
     8  C    3.869557   4.588618   0.000000
     9  O    4.690272   5.157141   1.258400   0.000000
    10  O    4.603153   5.546952   1.430000   2.328477   0.000000
    11  H    5.436748   6.315117   1.970533   2.389577   0.960000
    12  N    2.865398   3.784307   2.525008   3.566964   2.996713
    13  H    3.796376   4.771576   2.638851   3.698188   2.710949
    14  H    2.616319   3.464407   3.455514   4.446430   3.961052
    15  O    1.430000   2.329803   4.704271   5.712091   5.141697
    16  H    1.970533   2.512617   5.559962   6.530516   5.989067
                   11         12         13         14         15
    11  H    0.000000
    12  N    3.915953   0.000000
    13  H    3.586669   1.000000   0.000000
    14  H    4.894764   1.000000   1.732051   0.000000
    15  O    6.053296   3.050902   3.836983   2.489058   0.000000
    16  H    6.877219   4.010246   4.789419   3.414584   0.960000
                   16
    16  H    0.000000
 Stoichiometry    C4H7NO4
 Framework group  C1[X(C4H7NO4)]
 Deg. of freedom    42
 Full point group                 C1      NOp   1
 Largest Abelian subgroup         C1      NOp   1
 Largest concise Abelian subgroup C1      NOp   1
                         Standard orientation:                         
 ---------------------------------------------------------------------
 Center     Atomic      Atomic             Coordinates (Angstroms)
 Number     Number       Type             X           Y           Z
 ---------------------------------------------------------------------
      1          6           0       -0.453095   -0.112928    0.466742
      2          1           0       -0.261583   -0.838505    1.257287
      3          6           0        0.490247   -0.399492   -0.696706
      4          1           0        0.306627   -1.405191   -1.074798
      5          1           0        0.316724    0.324667   -1.492686
      6          6           0        1.936241   -0.292246   -0.217823
      7          8           0        2.525880   -1.307372    0.235404
      8          6           0       -1.924885   -0.211226    0.024280
      9          8           0       -2.628071   -1.193550    0.376614
     10          8           0       -2.494426    0.817306   -0.789750
     11          1           0       -3.364681    0.544053   -1.089067
     12          7           0       -0.131392    1.277846    0.994699
     13          1           0       -0.842222    1.980845    1.017358
     14          1           0        0.790806    1.488628    1.318924
     15          8           0        2.620337    0.961741   -0.284392
     16          1           0        3.493260    0.830925   -0.661873
 ---------------------------------------------------------------------
 Rotational constants (GHZ):      3.1835372      0.8582673      0.7723226
 Standard basis: 6-31G (6D, 7F)
 There are    95 symmetry adapted cartesian basis functions of A   symmetry.
 There are    95 symmetry adapted basis functions of A   symmetry.
    95 basis functions,   226 primitive gaussians,    95 cartesian basis functions
    35 alpha electrons       35 beta electrons
       nuclear repulsion energy       452.8618884917 Hartrees.
 NAtoms=   16 NActive=   16 NUniq=   16 SFac= 1.00D+00 NAtFMM=   60 NAOKFM=F Big=F
 Integral buffers will be    262144 words long.
 Raffenetti 2 integral format.
 Two-electron integral symmetry is turned on.
 One-electron integrals computed using PRISM.
 NBasis=    95 RedAO= T EigKep=  4.21D-03  NBF=    95
 NBsUse=    95 1.00D-06 EigRej= -1.00D+00 NBFU=    95
 ExpMin= 1.61D-01 ExpMax= 5.48D+03 ExpMxC= 8.25D+02 IAcc=1 IRadAn=         1 AccDes= 0.00D+00
 Harris functional with IExCor=  402 and IRadAn=       1 diagonalized for initial guess.
 HarFok:  IExCor=  402 AccDes= 0.00D+00 IRadAn=         1 IDoV= 1 UseB2=F ITyADJ=14
 ICtDFT=  3500011 ScaDFX=  1.000000  1.000000  1.000000  1.000000
 FoFCou: FMM=F IPFlag=           0 FMFlag=      100000 FMFlg1=           0
         NFxFlg=           0 DoJE=T BraDBF=F KetDBF=T FulRan=T
         wScrn=  0.000000 ICntrl=     500 IOpCl=  0 I1Cent=   200000004 NGrid=           0
         NMat0=    1 NMatS0=      1 NMatT0=    0 NMatD0=    1 NMtDS0=    0 NMtDT0=    0
 Petite list used in FoFCou.
 Keep R1 ints in memory in canonical form, NReq=11356412.
 Requested convergence on RMS density matrix=1.00D-08 within 128 cycles.
 Requested convergence on MAX density matrix=1.00D-06.
 Requested convergence on             energy=1.00D-06.
 No special actions if energy rises.
 Integral accuracy reduced to 1.0D-05 until final iterations.
 Initial convergence to 1.0D-05 achieved.  Increase integral accuracy.
 SCF Done:  E(RB3LYP) =  -512.090965856     A.U. after   16 cycles
            NFock= 16  Conv=0.45D-08     -V/T= 2.0062

 **********************************************************************

            Population analysis using the SCF density.

 **********************************************************************

 Orbital symmetries:
       Occupied  (A) (A) (A) (A) (A) (A) (A) (A) (A) (A) (A) (A)
                 (A) (A) (A) (A) (A) (A) (A) (A) (A) (A) (A) (A)
                 (A) (A) (A) (A) (A) (A) (A) (A) (A) (A) (A)
       Virtual   (A) (A) (A) (A) (A) (A) (A) (A) (A) (A) (A) (A)
                 (A) (A) (A) (A) (A) (A) (A) (A) (A) (A) (A) (A)
                 (A) (A) (A) (A) (A) (A) (A) (A) (A) (A) (A) (A)
                 (A) (A) (A) (A) (A) (A) (A) (A) (A) (A) (A) (A)
                 (A) (A) (A) (A) (A) (A) (A) (A) (A) (A) (A) (A)
 The electronic state is 1-A.
 Alpha  occ. eigenvalues --  -19.20908 -19.19693 -19.16807 -19.16558 -14.30745
 Alpha  occ. eigenvalues --  -10.35509 -10.35040 -10.26394 -10.21882  -1.11420
 Alpha  occ. eigenvalues --   -1.10710  -1.03403  -1.03032  -0.88814  -0.78844
 Alpha  occ. eigenvalues --   -0.71057  -0.63281  -0.61251  -0.53438  -0.51744
 Alpha  occ. eigenvalues --   -0.50190  -0.47749  -0.46910  -0.46237  -0.45470
 Alpha  occ. eigenvalues --   -0.43566  -0.41106  -0.39664  -0.38981  -0.37028
 Alpha  occ. eigenvalues --   -0.33045  -0.32795  -0.29457  -0.28418  -0.22172
 Alpha virt. eigenvalues --   -0.05402  -0.03483   0.04737   0.05371   0.10419
 Alpha virt. eigenvalues --    0.12793   0.13212   0.14085   0.15435   0.16564
 Alpha virt. eigenvalues --    0.18398   0.20084   0.22229   0.27651   0.28866
 Alpha virt. eigenvalues --    0.31165   0.33577   0.52845   0.55069   0.55658
 Alpha virt. eigenvalues --    0.56408   0.59436   0.60726   0.62898   0.63237
 Alpha virt. eigenvalues --    0.64024   0.68616   0.72185   0.75667   0.78629
 Alpha virt. eigenvalues --    0.80492   0.81705   0.82174   0.83721   0.88285
 Alpha virt. eigenvalues --    0.90773   0.91163   0.92787   0.93412   0.95009
 Alpha virt. eigenvalues --    0.96109   0.98199   1.01902   1.03179   1.04591
 Alpha virt. eigenvalues --    1.06035   1.09204   1.10800   1.12572   1.18665
 Alpha virt. eigenvalues --    1.22472   1.27487   1.34110   1.37325   1.46638
 Alpha virt. eigenvalues --    1.55110   1.72426   1.86145   1.88489   1.95212
          Condensed to atoms (all electrons):
               1          2          3          4          5          6
     1  C    5.245785   0.395518   0.233402  -0.029202  -0.021069  -0.023796
     2  H    0.395518   0.563553  -0.070867   0.000959   0.006143  -0.003770
     3  C    0.233402  -0.070867   5.506074   0.339702   0.320874   0.219590
     4  H   -0.029202   0.000959   0.339702   0.558585  -0.026959  -0.031749
     5  H   -0.021069   0.006143   0.320874  -0.026959   0.549835  -0.016375
     6  C   -0.023796  -0.003770   0.219590  -0.031749  -0.016375   4.792768
     7  O    0.000309   0.004473  -0.109520  -0.000079   0.003556   0.465644
     8  C    0.179525  -0.041510  -0.014225  -0.002155  -0.009228   0.001773
     9  O   -0.089473   0.001761   0.000702   0.001455  -0.000012  -0.000098
    10  O   -0.099965   0.002283   0.002883   0.000045   0.003423  -0.000071
    11  H    0.008371  -0.000086  -0.000467  -0.000031  -0.000108   0.000008
    12  N    0.237649  -0.051506  -0.085250   0.006713   0.002560  -0.012753
    13  H   -0.031950   0.002056   0.003801  -0.000116   0.000352  -0.000201
    14  H   -0.021955  -0.000900  -0.004178  -0.000072  -0.000215   0.003264
    15  O   -0.001287   0.000166  -0.097821   0.002287   0.004950   0.159241
    16  H    0.000028   0.000000   0.007057  -0.000171  -0.000378  -0.013235
               7          8          9         10         11         12
     1  C    0.000309   0.179525  -0.089473  -0.099965   0.008371   0.237649
     2  H    0.004473  -0.041510   0.001761   0.002283  -0.000086  -0.051506
     3  C   -0.109520  -0.014225   0.000702   0.002883  -0.000467  -0.085250
     4  H   -0.000079  -0.002155   0.001455   0.000045  -0.000031   0.006713
     5  H    0.003556  -0.009228  -0.000012   0.003423  -0.000108   0.002560
     6  C    0.465644   0.001773  -0.000098  -0.000071   0.000008  -0.012753
     7  O    8.129739  -0.000121   0.000000   0.000000   0.000000  -0.000319
     8  C   -0.000121   4.798790   0.469617   0.168368  -0.011783  -0.018852
     9  O    0.000000   0.469617   8.117036  -0.102135   0.005779   0.001752
    10  O    0.000000   0.168368  -0.102135   8.349397   0.228612   0.004172
    11  H    0.000000  -0.011783   0.005779   0.228612   0.378957  -0.000221
    12  N   -0.000319  -0.018852   0.001752   0.004172  -0.000221   7.009953
    13  H   -0.000004  -0.004793   0.000083   0.004557  -0.000181   0.337982
    14  H   -0.000256   0.002352  -0.000058   0.000035   0.000005   0.326003
    15  O   -0.101130  -0.000105   0.000000   0.000000   0.000000  -0.000322
    16  H    0.001289   0.000006   0.000000   0.000000   0.000000   0.000260
              13         14         15         16
     1  C   -0.031950  -0.021955  -0.001287   0.000028
     2  H    0.002056  -0.000900   0.000166   0.000000
     3  C    0.003801  -0.004178  -0.097821   0.007057
     4  H   -0.000116  -0.000072   0.002287  -0.000171
     5  H    0.000352  -0.000215   0.004950  -0.000378
     6  C   -0.000201   0.003264   0.159241  -0.013235
     7  O   -0.000004  -0.000256  -0.101130   0.001289
     8  C   -0.004793   0.002352  -0.000105   0.000006
     9  O    0.000083  -0.000058   0.000000   0.000000
    10  O    0.004557   0.000035   0.000000   0.000000
    11  H   -0.000181   0.000005   0.000000   0.000000
    12  N    0.337982   0.326003  -0.000322   0.000260
    13  H    0.395822  -0.023749   0.000082  -0.000004
    14  H   -0.023749   0.387869   0.007203  -0.000022
    15  O    0.000082   0.007203   8.361844   0.232479
    16  H   -0.000004  -0.000022   0.232479   0.381381
 Mulliken charges:
               1
     1  C    0.018108
     2  H    0.191726
     3  C   -0.251758
     4  H    0.180788
     5  H    0.182652
     6  C    0.459759
     7  O   -0.393581
     8  C    0.482341
     9  O   -0.406410
    10  O   -0.561606
    11  H    0.391143
    12  N   -0.757823
    13  H    0.316265
    14  H    0.324673
    15  O   -0.567587
    16  H    0.391311
 Sum of Mulliken charges =   0.00000
 Mulliken charges with hydrogens summed into heavy atoms:
               1
     1  C    0.209834
     3  C    0.111682
     6  C    0.459759
     7  O   -0.393581
     8  C    0.482341
     9  O   -0.406410
    10  O   -0.170463
    12  N   -0.116885
    15  O   -0.176277
 Electronic spatial extent (au):  <R**2>=           1445.9399
 Charge=              0.0000 electrons
 Dipole moment (field-independent basis, Debye):
    X=              0.1190    Y=              2.1028    Z=             -2.3354  Tot=              3.1449
 Quadrupole moment (field-independent basis, Debye-Ang):
   XX=            -46.7353   YY=            -58.7280   ZZ=            -49.5997
   XY=              0.2639   XZ=             -0.1543   YZ=              3.7912
 Traceless Quadrupole moment (field-independent basis, Debye-Ang):
   XX=              4.9524   YY=             -7.0404   ZZ=              2.0880
   XY=              0.2639   XZ=             -0.1543   YZ=              3.7912
 Octapole moment (field-independent basis, Debye-Ang**2):
  XXX=              6.3914  YYY=             12.4181  ZZZ=             -5.2857  XYY=             -2.1658
  XXY=             38.3089  XXZ=            -34.9531  XZZ=              1.2054  YZZ=              1.1996
  YYZ=              2.1010  XYZ=             -2.6338
 Hexadecapole moment (field-independent basis, Debye-Ang**3):
 XXXX=           -991.1935 YYYY=           -298.3808 ZZZZ=           -167.0114 XXXY=             13.2321
 XXXZ=             10.6398 YYYX=             -0.8661 YYYZ=             14.1962 ZZZX=             10.6026
 ZZZY=             -5.4238 XXYY=           -303.6668 XXZZ=           -200.8077 YYZZ=            -72.2859
 XXYZ=              3.6396 YYXZ=             -1.5292 ZZXY=              2.4872
 N-N= 4.528618884917D+02 E-N=-2.106707290593D+03  KE= 5.089211981542D+02
 Calling FoFJK, ICntrl=      2127 FMM=F ISym2X=0 I1Cent= 0 IOpClX= 0 NMat=1 NMatS=1 NMatT=0.
 ***** Axes restored to original set *****
 -------------------------------------------------------------------
 Center     Atomic                   Forces (Hartrees/Bohr)
 Number     Number              X              Y              Z
 -------------------------------------------------------------------
      1        6           0.049222074    0.034725676    0.007070147
      2        1           0.000320913   -0.010333535   -0.003931193
      3        6           0.002406137    0.013329452    0.014714157
      4        1          -0.006962756    0.002980513    0.000812502
      5        1           0.002585947   -0.000073805    0.000464236
      6        6          -0.042672234    0.004902831   -0.011544487
      7        8           0.030391909    0.001402086    0.018263166
      8        6           0.000754469   -0.029893294   -0.023399365
      9        8           0.010589447    0.022307081    0.025986989
     10        8          -0.036697253    0.040781370   -0.012843735
     11        1           0.005495943   -0.019993143   -0.005027904
     12        7          -0.014172274   -0.036193577   -0.005347870
     13        1           0.002956223   -0.000336610    0.000994263
     14        1          -0.001783566    0.003379461    0.001278377
     15        8           0.012927447   -0.044046188   -0.010348976
     16        1          -0.015362426    0.017061682    0.002859693
 -------------------------------------------------------------------
 Cartesian Forces:  Max     0.049222074 RMS     0.019458906

 GradGradGradGradGradGradGradGradGradGradGradGradGradGradGradGradGradGrad
 Berny optimization.
 FormGI is forming the generalized inverse of G from B-inverse, IUseBI=4.
 Internal  Forces:  Max     0.038250456 RMS     0.012405285
 Search for a local minimum.
 Step number   1 out of a maximum of   79
 All quantities printed in internal units (Hartrees-Bohrs-Radians)
 Mixed Optimization -- RFO/linear search
 Second derivative matrix not updated -- first step.
 ITU=  0
     Eigenvalues ---    0.00230   0.00230   0.00237   0.00409   0.00435
     Eigenvalues ---    0.00500   0.00630   0.01295   0.01295   0.04494
     Eigenvalues ---    0.04583   0.05223   0.05538   0.05994   0.08755
     Eigenvalues ---    0.12419   0.16000   0.16000   0.16000   0.16000
     Eigenvalues ---    0.16849   0.18304   0.21983   0.25000   0.25000
     Eigenvalues ---    0.25000   0.25000   0.28519   0.29702   0.29890
     Eigenvalues ---    0.30175   0.34813   0.34813   0.34813   0.40989
     Eigenvalues ---    0.40989   0.47688   0.47688   0.55473   0.55473
     Eigenvalues ---    0.80209   0.80209
 RFO step:  Lambda=-3.29956297D-02 EMin= 2.30000000D-03
 Linear search not attempted -- first point.
 Iteration  1 RMS(Cart)=  0.08430682 RMS(Int)=  0.00590351
 Iteration  2 RMS(Cart)=  0.00973966 RMS(Int)=  0.00061244
 Iteration  3 RMS(Cart)=  0.00012934 RMS(Int)=  0.00060015
 Iteration  4 RMS(Cart)=  0.00000004 RMS(Int)=  0.00060015
 Variable       Old X    -DE/DX   Delta X   Delta X   Delta X     New X
                                 (Linear)    (Quad)   (Total)
    R1        2.05980   0.00230   0.00000   0.00603   0.00603   2.06583
    R2        2.88183   0.02158   0.00000   0.06501   0.06501   2.94684
    R3        2.91018  -0.02104   0.00000  -0.06612  -0.06612   2.84405
    R4        2.87616  -0.03363   0.00000  -0.10047  -0.10047   2.77570
    R5        2.05980   0.00258   0.00000   0.00678   0.00678   2.06658
    R6        2.05980   0.00184   0.00000   0.00483   0.00483   2.06463
    R7        2.88561  -0.01153   0.00000  -0.03495  -0.03495   2.85066
    R8        2.37803  -0.03509   0.00000  -0.04202  -0.04202   2.33601
    R9        2.70231  -0.02575   0.00000  -0.05815  -0.05815   2.64416
   R10        2.37803  -0.03549   0.00000  -0.04250  -0.04250   2.33553
   R11        2.70231  -0.03825   0.00000  -0.08637  -0.08637   2.61594
   R12        1.81414   0.02087   0.00000   0.03551   0.03551   1.84965
   R13        1.88973   0.00297   0.00000   0.00582   0.00582   1.89555
   R14        1.88973   0.00378   0.00000   0.00741   0.00741   1.89714
   R15        1.81414   0.02023   0.00000   0.03442   0.03442   1.84856
    A1        1.89605  -0.00093   0.00000   0.00945   0.00681   1.90286
    A2        1.91114  -0.00263   0.00000  -0.05525  -0.05505   1.85608
    A3        1.89605   0.00290   0.00000   0.03929   0.03678   1.93283
    A4        1.93906  -0.00180   0.00000  -0.01270  -0.01198   1.92708
    A5        1.88137   0.01085   0.00000   0.06490   0.06397   1.94534
    A6        1.93906  -0.00799   0.00000  -0.04176  -0.04139   1.89768
    A7        1.91114   0.00249   0.00000   0.01736   0.01770   1.92884
    A8        1.91114  -0.00384   0.00000  -0.00933  -0.00967   1.90147
    A9        1.91061   0.00728   0.00000   0.02802   0.02798   1.93859
   A10        1.91013   0.00190   0.00000   0.00967   0.00964   1.91977
   A11        1.91039  -0.00876   0.00000  -0.06151  -0.06145   1.84895
   A12        1.91039   0.00092   0.00000   0.01577   0.01563   1.92602
   A13        2.09440   0.01708   0.00000   0.06034   0.05959   2.15399
   A14        2.09440  -0.02229   0.00000  -0.07877  -0.07949   2.01491
   A15        2.09440   0.00522   0.00000   0.01843   0.01774   2.11213
   A16        2.09836   0.01864   0.00000   0.06585   0.06572   2.16407
   A17        2.09241  -0.02834   0.00000  -0.10016  -0.10029   1.99213
   A18        2.09241   0.00971   0.00000   0.03431   0.03418   2.12660
   A19        1.91114  -0.00545   0.00000  -0.02825  -0.02825   1.88288
   A20        2.09440   0.00062   0.00000   0.00320   0.00303   2.09742
   A21        2.09440  -0.00084   0.00000  -0.00434  -0.00452   2.08988
   A22        2.09440   0.00022   0.00000   0.00113   0.00095   2.09535
   A23        1.91114   0.00286   0.00000   0.01480   0.01480   1.92594
    D1        1.05614  -0.00595   0.00000  -0.05391  -0.05403   1.00211
    D2       -3.13265  -0.00445   0.00000  -0.03714  -0.03727   3.11326
    D3       -1.03826  -0.00121   0.00000  -0.00636  -0.00657  -1.04483
    D4       -1.04720  -0.00098   0.00000   0.01621   0.01624  -1.03096
    D5        1.04720   0.00052   0.00000   0.03299   0.03300   1.08020
    D6       -3.14159   0.00377   0.00000   0.06376   0.06370  -3.07789
    D7        3.10765   0.00292   0.00000   0.03325   0.03345   3.14110
    D8       -1.08114   0.00442   0.00000   0.05003   0.05021  -1.03093
    D9        1.01325   0.00766   0.00000   0.08080   0.08091   1.09416
   D10       -0.23251  -0.00090   0.00000  -0.02623  -0.02589  -0.25840
   D11        2.90908   0.00021   0.00000   0.00304   0.00352   2.91260
   D12        1.86189  -0.00491   0.00000  -0.05840  -0.05834   1.80355
   D13       -1.27971  -0.00380   0.00000  -0.02914  -0.02893  -1.30863
   D14       -2.32690   0.00225   0.00000  -0.01281  -0.01343  -2.34034
   D15        0.81469   0.00336   0.00000   0.01645   0.01598   0.83067
   D16       -2.10333   0.00370   0.00000   0.03021   0.03139  -2.07195
   D17        1.03826   0.00494   0.00000   0.06534   0.06652   1.10478
   D18        2.12834  -0.00270   0.00000  -0.03766  -0.03878   2.08956
   D19       -1.01325  -0.00146   0.00000  -0.00253  -0.00365  -1.01691
   D20        0.00000  -0.00263   0.00000  -0.03861  -0.03867  -0.03867
   D21        3.14159  -0.00139   0.00000  -0.00348  -0.00354   3.13806
   D22        1.57080  -0.00092   0.00000  -0.04387  -0.04440   1.52640
   D23       -1.57080   0.00182   0.00000   0.02571   0.02560  -1.54520
   D24       -0.52405  -0.00306   0.00000  -0.04460  -0.04463  -0.56869
   D25        2.61754  -0.00032   0.00000   0.02497   0.02537   2.64290
   D26       -2.61754  -0.00059   0.00000  -0.02847  -0.02855  -2.64609
   D27        0.52405   0.00214   0.00000   0.04110   0.04145   0.56551
   D28       -2.32888  -0.01087   0.00000  -0.24151  -0.24081  -2.56970
   D29        0.81271  -0.00813   0.00000  -0.17194  -0.17264   0.64007
   D30        2.98896   0.00223   0.00000   0.04603   0.04625   3.03521
   D31       -0.15263   0.00334   0.00000   0.07519   0.07496  -0.07767
         Item               Value     Threshold  Converged?
 Maximum Force            0.038250     0.000450     NO 
 RMS     Force            0.012405     0.000300     NO 
 Maximum Displacement     0.271759     0.001800     NO 
 RMS     Displacement     0.083695     0.001200     NO 
 Predicted change in Energy=-2.010667D-02
 GradGradGradGradGradGradGradGradGradGradGradGradGradGradGradGradGradGrad

                          Input orientation:                          
 ---------------------------------------------------------------------
 Center     Atomic      Atomic             Coordinates (Angstroms)
 Number     Number       Type             X           Y           Z
 ---------------------------------------------------------------------
      1          6           0       -5.723450    1.951031    0.916832
      2          1           0       -6.342127    1.998193    0.016787
      3          6           0       -6.641293    2.073028    2.171588
      4          1           0       -7.399501    1.284961    2.169869
      5          1           0       -6.025131    1.996667    3.070585
      6          6           0       -7.399384    3.377189    2.164331
      7          8           0       -8.490357    3.527304    1.602780
      8          6           0       -5.042603    0.609044    0.892960
      9          8           0       -5.383370   -0.325714    0.159761
     10          8           0       -4.004558    0.484630    1.800299
     11          1           0       -3.694802   -0.443569    1.777161
     12          7           0       -4.696683    3.001208    0.897950
     13          1           0       -3.724157    2.755673    0.906692
     14          1           0       -4.971587    3.966717    0.906864
     15          8           0       -6.745236    4.456186    2.769065
     16          1           0       -7.394426    5.055735    3.188588
 ---------------------------------------------------------------------
                    Distance matrix (angstroms):
                    1          2          3          4          5
     1  C    0.000000
     2  H    1.093191   0.000000
     3  C    1.559402   2.176757   0.000000
     4  H    2.196110   2.502499   1.093587   0.000000
     5  H    2.175258   3.070207   1.092557   1.790728   0.000000
     6  C    2.529613   2.762493   1.508506   2.092235   2.148420
     7  O    3.257444   3.077084   2.420227   2.557276   3.251867
     8  C    1.505009   2.094320   2.516734   2.764476   2.762772
     9  O    2.423298   2.517975   3.373986   3.271023   3.778651
    10  O    2.425992   3.306965   3.100522   3.507527   2.825349
    11  H    3.254180   4.008671   3.894951   4.106925   3.613604
    12  N    1.468836   2.118956   2.503034   3.445070   2.737557
    13  H    2.155162   2.866963   3.252023   4.155330   3.248539
    14  H    2.151369   2.558458   2.823740   3.831679   3.110103
    15  O    3.278814   3.712043   2.459111   3.292987   2.580446
    16  H    4.194309   4.529483   3.240068   3.905963   3.353623
                    6          7          8          9         10
     6  C    0.000000
     7  O    1.236162   0.000000
     8  C    3.851419   4.572428   0.000000
     9  O    4.668416   5.155717   1.235911   0.000000
    10  O    4.474848   5.423954   1.384297   2.291100   0.000000
    11  H    5.335918   6.228611   1.925194   2.341182   0.978793
    12  N    3.008268   3.894294   2.417051   3.476330   2.761600
    13  H    3.933858   4.878178   2.519227   3.578524   2.456583
    14  H    2.796957   3.613742   3.358453   4.376379   3.722675
    15  O    1.399231   2.295319   4.606434   5.615133   4.921695
    16  H    1.966378   2.460072   5.529380   6.494469   5.857777
                   11         12         13         14         15
    11  H    0.000000
    12  N    3.693679   0.000000
    13  H    3.315679   1.003080   0.000000
    14  H    4.673138   1.003923   1.738594   0.000000
    15  O    5.856332   3.132827   3.935365   2.617863   0.000000
    16  H    6.776555   4.092178   4.895734   3.501768   0.978216
                   16
    16  H    0.000000
 Stoichiometry    C4H7NO4
 Framework group  C1[X(C4H7NO4)]
 Deg. of freedom    42
 Full point group                 C1      NOp   1
 Largest Abelian subgroup         C1      NOp   1
 Largest concise Abelian subgroup C1      NOp   1
                         Standard orientation:                         
 ---------------------------------------------------------------------
 Center     Atomic      Atomic             Coordinates (Angstroms)
 Number     Number       Type             X           Y           Z
 ---------------------------------------------------------------------
      1          6           0       -0.468683   -0.069308    0.484496
      2          1           0       -0.314220   -0.784941    1.296331
      3          6           0        0.518746   -0.397287   -0.677032
      4          1           0        0.376571   -1.425201   -1.022155
      5          1           0        0.343495    0.300476   -1.499281
      6          6           0        1.951151   -0.310915   -0.211901
      7          8           0        2.558704   -1.257618    0.300672
      8          6           0       -1.892178   -0.246195    0.029059
      9          8           0       -2.596799   -1.217409    0.325247
     10          8           0       -2.352814    0.766077   -0.795198
     11          1           0       -3.243157    0.512863   -1.113333
     12          7           0       -0.294863    1.307837    0.964850
     13          1           0       -1.057168    1.958120    0.918025
     14          1           0        0.598862    1.604980    1.312444
     15          8           0        2.541951    0.953168   -0.316283
     16          1           0        3.497102    0.867337   -0.509221
 ---------------------------------------------------------------------
 Rotational constants (GHZ):      3.2241720      0.8855201      0.7946353
 Standard basis: 6-31G (6D, 7F)
 There are    95 symmetry adapted cartesian basis functions of A   symmetry.
 There are    95 symmetry adapted basis functions of A   symmetry.
    95 basis functions,   226 primitive gaussians,    95 cartesian basis functions
    35 alpha electrons       35 beta electrons
       nuclear repulsion energy       458.8071684492 Hartrees.
 NAtoms=   16 NActive=   16 NUniq=   16 SFac= 1.00D+00 NAtFMM=   60 NAOKFM=F Big=F
 Integral buffers will be    262144 words long.
 Raffenetti 2 integral format.
 Two-electron integral symmetry is turned on.
 One-electron integrals computed using PRISM.
 NBasis=    95 RedAO= T EigKep=  4.01D-03  NBF=    95
 NBsUse=    95 1.00D-06 EigRej= -1.00D+00 NBFU=    95
 Initial guess from the checkpoint file:  "D:\file\file\Asp-R-opt-6-31g.chk"
 B after Tr=     0.000000    0.000000    0.000000
         Rot=    0.999869    0.011254    0.008564   -0.007812 Ang=   1.85 deg.
 ExpMin= 1.61D-01 ExpMax= 5.48D+03 ExpMxC= 8.25D+02 IAcc=1 IRadAn=         1 AccDes= 0.00D+00
 Harris functional with IExCor=  402 and IRadAn=       1 diagonalized for initial guess.
 HarFok:  IExCor=  402 AccDes= 0.00D+00 IRadAn=         1 IDoV= 1 UseB2=F ITyADJ=14
 ICtDFT=  3500011 ScaDFX=  1.000000  1.000000  1.000000  1.000000
 FoFCou: FMM=F IPFlag=           0 FMFlag=      100000 FMFlg1=           0
         NFxFlg=           0 DoJE=T BraDBF=F KetDBF=T FulRan=T
         wScrn=  0.000000 ICntrl=     500 IOpCl=  0 I1Cent=   200000004 NGrid=           0
         NMat0=    1 NMatS0=      1 NMatT0=    0 NMatD0=    1 NMtDS0=    0 NMtDT0=    0
 Petite list used in FoFCou.
 Keep R1 ints in memory in canonical form, NReq=11356412.
 Requested convergence on RMS density matrix=1.00D-08 within 128 cycles.
 Requested convergence on MAX density matrix=1.00D-06.
 Requested convergence on             energy=1.00D-06.
 No special actions if energy rises.
 Integral accuracy reduced to 1.0D-05 until final iterations.
 Initial convergence to 1.0D-05 achieved.  Increase integral accuracy.
 SCF Done:  E(RB3LYP) =  -512.112437950     A.U. after   14 cycles
            NFock= 14  Conv=0.96D-08     -V/T= 2.0056
 Calling FoFJK, ICntrl=      2127 FMM=F ISym2X=0 I1Cent= 0 IOpClX= 0 NMat=1 NMatS=1 NMatT=0.
 ***** Axes restored to original set *****
 -------------------------------------------------------------------
 Center     Atomic                   Forces (Hartrees/Bohr)
 Number     Number              X              Y              Z
 -------------------------------------------------------------------
      1        6           0.019438091    0.021243511    0.000850628
      2        1          -0.003890970   -0.002390266   -0.000473135
      3        6           0.000479945    0.003750689    0.005464611
      4        1           0.000566011   -0.001513899   -0.001341063
      5        1           0.000660527    0.000485514   -0.001392399
      6        6          -0.005915854    0.004381529   -0.009749169
      7        8           0.000857379   -0.000714396    0.006826500
      8        6          -0.005244008   -0.009861783   -0.004812890
      9        8           0.002394881    0.001583670    0.004605840
     10        8          -0.006783353    0.003091668   -0.002481869
     11        1           0.005033929   -0.002838903    0.000432407
     12        7          -0.008949955   -0.010101665   -0.003900926
     13        1          -0.000282253    0.001389571    0.002927299
     14        1           0.001133777    0.000371926    0.001395686
     15        8           0.002108396   -0.016951260    0.009524363
     16        1          -0.001606542    0.008074092   -0.007875883
 -------------------------------------------------------------------
 Cartesian Forces:  Max     0.021243511 RMS     0.006607303

 GradGradGradGradGradGradGradGradGradGradGradGradGradGradGradGradGradGrad
 Berny optimization.
 Using GEDIIS/GDIIS optimizer.
 FormGI is forming the generalized inverse of G from B-inverse, IUseBI=4.
 Internal  Forces:  Max     0.011633143 RMS     0.003436815
 Search for a local minimum.
 Step number   2 out of a maximum of   79
 All quantities printed in internal units (Hartrees-Bohrs-Radians)
 Mixed Optimization -- RFO/linear search
 Update second derivatives using D2CorX and points    1    2
 DE= -2.15D-02 DEPred=-2.01D-02 R= 1.07D+00
 TightC=F SS=  1.41D+00  RLast= 4.65D-01 DXNew= 5.0454D-01 1.3959D+00
 Trust test= 1.07D+00 RLast= 4.65D-01 DXMaxT set to 5.05D-01
 ITU=  1  0
 Use linear search instead of GDIIS.
     Eigenvalues ---    0.00230   0.00232   0.00237   0.00409   0.00436
     Eigenvalues ---    0.00497   0.00653   0.01180   0.01297   0.04364
     Eigenvalues ---    0.04481   0.05121   0.05464   0.06420   0.09126
     Eigenvalues ---    0.12685   0.15868   0.16000   0.16000   0.16096
     Eigenvalues ---    0.17725   0.18018   0.21891   0.22273   0.24968
     Eigenvalues ---    0.24995   0.25326   0.28750   0.29673   0.29732
     Eigenvalues ---    0.30841   0.34787   0.34813   0.34850   0.40614
     Eigenvalues ---    0.41873   0.47686   0.47737   0.55097   0.55513
     Eigenvalues ---    0.79570   0.80219
 RFO step:  Lambda=-1.05704779D-02 EMin= 2.29748867D-03
 Quartic linear search produced a step of  0.32146.
 Iteration  1 RMS(Cart)=  0.06277105 RMS(Int)=  0.04084672
 Iteration  2 RMS(Cart)=  0.03520556 RMS(Int)=  0.00757779
 Iteration  3 RMS(Cart)=  0.00744311 RMS(Int)=  0.00128307
 Iteration  4 RMS(Cart)=  0.00017021 RMS(Int)=  0.00127161
 Iteration  5 RMS(Cart)=  0.00000007 RMS(Int)=  0.00127161
 Variable       Old X    -DE/DX   Delta X   Delta X   Delta X     New X
                                 (Linear)    (Quad)   (Total)
    R1        2.06583   0.00249   0.00194   0.00783   0.00977   2.07560
    R2        2.94684   0.00266   0.02090   0.00141   0.02230   2.96915
    R3        2.84405   0.00511  -0.02126   0.03119   0.00993   2.85399
    R4        2.77570  -0.01163  -0.03230  -0.03211  -0.06441   2.71129
    R5        2.06658   0.00070   0.00218   0.00150   0.00368   2.07026
    R6        2.06463  -0.00081   0.00155  -0.00347  -0.00191   2.06272
    R7        2.85066  -0.00221  -0.01123  -0.00395  -0.01518   2.83548
    R8        2.33601  -0.00395  -0.01351  -0.00113  -0.01463   2.32137
    R9        2.64416  -0.00589  -0.01869  -0.00978  -0.02848   2.61569
   R10        2.33553  -0.00459  -0.01366  -0.00205  -0.01571   2.31982
   R11        2.61594  -0.00269  -0.02776   0.00346  -0.02430   2.59164
   R12        1.84965   0.00428   0.01142   0.00502   0.01644   1.86609
   R13        1.89555  -0.00059   0.00187  -0.00225  -0.00038   1.89516
   R14        1.89714   0.00006   0.00238  -0.00080   0.00158   1.89872
   R15        1.84856   0.00264   0.01107   0.00153   0.01260   1.86116
    A1        1.90286  -0.00115   0.00219  -0.03301  -0.03245   1.87041
    A2        1.85608  -0.00076  -0.01770  -0.00174  -0.02052   1.83556
    A3        1.93283   0.00144   0.01182   0.02383   0.03515   1.96798
    A4        1.92708  -0.00272  -0.00385  -0.01899  -0.02312   1.90396
    A5        1.94534   0.00075   0.02057  -0.00258   0.01789   1.96323
    A6        1.89768   0.00235  -0.01330   0.03264   0.01962   1.91729
    A7        1.92884  -0.00096   0.00569  -0.01619  -0.01040   1.91844
    A8        1.90147  -0.00054  -0.00311  -0.00970  -0.01292   1.88855
    A9        1.93859  -0.00120   0.00899  -0.01234  -0.00335   1.93524
   A10        1.91977   0.00052   0.00310   0.00781   0.01076   1.93053
   A11        1.84895   0.00114  -0.01975   0.02491   0.00512   1.85407
   A12        1.92602   0.00111   0.00502   0.00642   0.01135   1.93737
   A13        2.15399   0.00626   0.01916   0.02257   0.04088   2.19487
   A14        2.01491  -0.01029  -0.02555  -0.03560  -0.06200   1.95291
   A15        2.11213   0.00405   0.00570   0.01842   0.02327   2.13540
   A16        2.16407   0.00587   0.02113   0.01879   0.03913   2.20320
   A17        1.99213  -0.00557  -0.03224  -0.01084  -0.04386   1.94827
   A18        2.12660  -0.00028   0.01099  -0.00586   0.00437   2.13097
   A19        1.88288   0.00582  -0.00908   0.04763   0.03855   1.92143
   A20        2.09742   0.00078   0.00097   0.00339  -0.00137   2.09605
   A21        2.08988   0.00068  -0.00145   0.00400  -0.00318   2.08670
   A22        2.09535  -0.00153   0.00031  -0.01315  -0.01872   2.07663
   A23        1.92594   0.00229   0.00476   0.01411   0.01887   1.94480
    D1        1.00211  -0.00097  -0.01737   0.01343  -0.00362   0.99848
    D2        3.11326  -0.00128  -0.01198   0.00675  -0.00491   3.10835
    D3       -1.04483  -0.00103  -0.00211   0.00038  -0.00144  -1.04627
    D4       -1.03096   0.00218   0.00522   0.04577   0.05069  -0.98026
    D5        1.08020   0.00187   0.01061   0.03909   0.04940   1.12960
    D6       -3.07789   0.00212   0.02048   0.03272   0.05288  -3.02502
    D7        3.14110   0.00055   0.01075   0.01911   0.02987  -3.11222
    D8       -1.03093   0.00025   0.01614   0.01243   0.02858  -1.00235
    D9        1.09416   0.00049   0.02601   0.00606   0.03206   1.12622
   D10       -0.25840   0.00167  -0.00832   0.03613   0.02789  -0.23051
   D11        2.91260   0.00105   0.00113  -0.04334  -0.04247   2.87013
   D12        1.80355  -0.00160  -0.01875  -0.01432  -0.03265   1.77090
   D13       -1.30863  -0.00221  -0.00930  -0.09380  -0.10300  -1.41164
   D14       -2.34034  -0.00085  -0.00432  -0.00820  -0.01253  -2.35286
   D15        0.83067  -0.00147   0.00514  -0.08768  -0.08289   0.74778
   D16       -2.07195  -0.00201   0.01009  -0.15699  -0.14611  -2.21806
   D17        1.10478   0.00035   0.02138   0.03238   0.05376   1.15854
   D18        2.08956  -0.00206  -0.01247  -0.12967  -0.14212   1.94744
   D19       -1.01691   0.00030  -0.00117   0.05970   0.05776  -0.95915
   D20       -0.03867  -0.00072  -0.01243  -0.12623  -0.13828  -0.17695
   D21        3.13806   0.00164  -0.00114   0.06314   0.06159  -3.08354
   D22        1.52640   0.00022  -0.01427   0.06515   0.05081   1.57721
   D23       -1.54520  -0.00012   0.00823  -0.02273  -0.01463  -1.55982
   D24       -0.56869   0.00135  -0.01435   0.07629   0.06207  -0.50661
   D25        2.64290   0.00101   0.00815  -0.01160  -0.00336   2.63954
   D26       -2.64609  -0.00052  -0.00918   0.04905   0.03989  -2.60620
   D27        0.56551  -0.00086   0.01333  -0.03884  -0.02555   0.53996
   D28       -2.56970  -0.00932  -0.07741  -0.32834  -0.40583  -2.97553
   D29        0.64007  -0.00977  -0.05550  -0.41419  -0.46962   0.17045
   D30        3.03521   0.00240   0.01487   0.10771   0.12202  -3.12595
   D31       -0.07767   0.00168   0.02410   0.02967   0.05433  -0.02334
         Item               Value     Threshold  Converged?
 Maximum Force            0.011633     0.000450     NO 
 RMS     Force            0.003437     0.000300     NO 
 Maximum Displacement     0.469679     0.001800     NO 
 RMS     Displacement     0.091966     0.001200     NO 
 Predicted change in Energy=-1.004844D-02
 GradGradGradGradGradGradGradGradGradGradGradGradGradGradGradGradGradGrad

                          Input orientation:                          
 ---------------------------------------------------------------------
 Center     Atomic      Atomic             Coordinates (Angstroms)
 Number     Number       Type             X           Y           Z
 ---------------------------------------------------------------------
      1          6           0       -5.716294    1.970440    0.925624
      2          1           0       -6.360704    2.013994    0.037234
      3          6           0       -6.653034    2.068226    2.183257
      4          1           0       -7.395206    1.262742    2.159371
      5          1           0       -6.032089    1.992180    3.077747
      6          6           0       -7.428071    3.353003    2.174233
      7          8           0       -8.533290    3.521034    1.665050
      8          6           0       -5.082402    0.600182    0.887264
      9          8           0       -5.426392   -0.338771    0.175206
     10          8           0       -4.003129    0.518757    1.729513
     11          1           0       -3.598129   -0.380267    1.675940
     12          7           0       -4.696294    2.979447    0.921390
     13          1           0       -3.735053    2.723333    1.048606
     14          1           0       -4.956122    3.947227    0.995109
     15          8           0       -6.745880    4.371818    2.816522
     16          1           0       -7.316576    5.164940    2.940045
 ---------------------------------------------------------------------
                    Distance matrix (angstroms):
                    1          2          3          4          5
     1  C    0.000000
     2  H    1.098362   0.000000
     3  C    1.571205   2.166520   0.000000
     4  H    2.200390   2.477506   1.095533   0.000000
     5  H    2.175277   3.058297   1.091544   1.798216   0.000000
     6  C    2.529958   2.738427   1.500472   2.090572   2.148707
     7  O    3.299480   3.105010   2.431986   2.576718   3.254092
     8  C    1.510264   2.086976   2.510306   2.721453   2.763654
     9  O    2.445328   2.535247   3.366089   3.221488   3.771598
    10  O    2.385069   3.264613   3.103020   3.499211   2.846996
    11  H    3.251987   4.006204   3.947776   4.165451   3.676647
    12  N    1.434751   2.117567   2.500292   3.429839   2.721932
    13  H    2.123037   2.901738   3.198627   4.094367   3.150932
    14  H    2.119051   2.574445   2.796758   3.809344   3.052425
    15  O    3.225238   3.664988   2.390854   3.243428   2.498082
    16  H    4.101661   4.389586   3.256172   3.980299   3.425679
                    6          7          8          9         10
     6  C    0.000000
     7  O    1.228418   0.000000
     8  C    3.838812   4.587479   0.000000
     9  O    4.651025   5.174027   1.227595   0.000000
    10  O    4.467769   5.435089   1.371438   2.275280   0.000000
    11  H    5.371598   6.290954   1.945857   2.365686   0.987492
    12  N    3.028492   3.945743   2.410631   3.478564   2.681144
    13  H    3.911765   4.903001   2.519752   3.605542   2.322855
    14  H    2.802494   3.664232   3.351162   4.388984   3.633449
    15  O    1.384162   2.290100   4.551312   5.559429   4.852871
    16  H    1.970283   2.410069   5.481100   6.442668   5.833638
                   11         12         13         14         15
    11  H    0.000000
    12  N    3.614276   0.000000
    13  H    3.169326   1.002878   0.000000
    14  H    4.586380   1.004761   1.729679   0.000000
    15  O    5.813053   3.119459   3.861103   2.588640   0.000000
    16  H    6.795155   3.964495   4.729302   3.292012   0.984883
                   16
    16  H    0.000000
 Stoichiometry    C4H7NO4
 Framework group  C1[X(C4H7NO4)]
 Deg. of freedom    42
 Full point group                 C1      NOp   1
 Largest Abelian subgroup         C1      NOp   1
 Largest concise Abelian subgroup C1      NOp   1
                         Standard orientation:                         
 ---------------------------------------------------------------------
 Center     Atomic      Atomic             Coordinates (Angstroms)
 Number     Number       Type             X           Y           Z
 ---------------------------------------------------------------------
      1          6           0       -0.464854   -0.034558    0.492131
      2          1           0       -0.299259   -0.759054    1.300884
      3          6           0        0.533441   -0.396171   -0.666027
      4          1           0        0.373888   -1.431522   -0.986625
      5          1           0        0.359539    0.293585   -1.493954
      6          6           0        1.954564   -0.318564   -0.190838
      7          8           0        2.599368   -1.242673    0.298305
      8          6           0       -1.878202   -0.283604    0.021682
      9          8           0       -2.574642   -1.255697    0.299159
     10          8           0       -2.347244    0.754773   -0.741611
     11          1           0       -3.276131    0.575193   -1.024558
     12          7           0       -0.329197    1.325361    0.928854
     13          1           0       -1.062527    1.986048    0.751413
     14          1           0        0.569213    1.663319    1.225819
     15          8           0        2.486685    0.948067   -0.359355
     16          1           0        3.456620    0.956519   -0.188627
 ---------------------------------------------------------------------
 Rotational constants (GHZ):      3.2533960      0.8960703      0.7966457
 Standard basis: 6-31G (6D, 7F)
 There are    95 symmetry adapted cartesian basis functions of A   symmetry.
 There are    95 symmetry adapted basis functions of A   symmetry.
    95 basis functions,   226 primitive gaussians,    95 cartesian basis functions
    35 alpha electrons       35 beta electrons
       nuclear repulsion energy       461.0620000472 Hartrees.
 NAtoms=   16 NActive=   16 NUniq=   16 SFac= 1.00D+00 NAtFMM=   60 NAOKFM=F Big=F
 Integral buffers will be    262144 words long.
 Raffenetti 2 integral format.
 Two-electron integral symmetry is turned on.
 One-electron integrals computed using PRISM.
 NBasis=    95 RedAO= T EigKep=  3.93D-03  NBF=    95
 NBsUse=    95 1.00D-06 EigRej= -1.00D+00 NBFU=    95
 Initial guess from the checkpoint file:  "D:\file\file\Asp-R-opt-6-31g.chk"
 B after Tr=     0.000000    0.000000    0.000000
         Rot=    0.999984    0.003324    0.000015   -0.004509 Ang=   0.64 deg.
 ExpMin= 1.61D-01 ExpMax= 5.48D+03 ExpMxC= 8.25D+02 IAcc=1 IRadAn=         1 AccDes= 0.00D+00
 Harris functional with IExCor=  402 and IRadAn=       1 diagonalized for initial guess.
 HarFok:  IExCor=  402 AccDes= 0.00D+00 IRadAn=         1 IDoV= 1 UseB2=F ITyADJ=14
 ICtDFT=  3500011 ScaDFX=  1.000000  1.000000  1.000000  1.000000
 FoFCou: FMM=F IPFlag=           0 FMFlag=      100000 FMFlg1=           0
         NFxFlg=           0 DoJE=T BraDBF=F KetDBF=T FulRan=T
         wScrn=  0.000000 ICntrl=     500 IOpCl=  0 I1Cent=   200000004 NGrid=           0
         NMat0=    1 NMatS0=      1 NMatT0=    0 NMatD0=    1 NMtDS0=    0 NMtDT0=    0
 Petite list used in FoFCou.
 Keep R1 ints in memory in canonical form, NReq=11356412.
 Requested convergence on RMS density matrix=1.00D-08 within 128 cycles.
 Requested convergence on MAX density matrix=1.00D-06.
 Requested convergence on             energy=1.00D-06.
 No special actions if energy rises.
 Integral accuracy reduced to 1.0D-05 until final iterations.
 Initial convergence to 1.0D-05 achieved.  Increase integral accuracy.
 SCF Done:  E(RB3LYP) =  -512.121175243     A.U. after   14 cycles
            NFock= 14  Conv=0.31D-08     -V/T= 2.0054
 Calling FoFJK, ICntrl=      2127 FMM=F ISym2X=0 I1Cent= 0 IOpClX= 0 NMat=1 NMatS=1 NMatT=0.
 ***** Axes restored to original set *****
 -------------------------------------------------------------------
 Center     Atomic                   Forces (Hartrees/Bohr)
 Number     Number              X              Y              Z
 -------------------------------------------------------------------
      1        6          -0.003696909    0.001766297    0.000998581
      2        1          -0.000269734    0.000882915   -0.000319957
      3        6          -0.002027985   -0.003433714   -0.000375393
      4        1           0.001857371   -0.000918364   -0.000157949
      5        1          -0.000772344    0.000820056    0.000107331
      6        6           0.004108326   -0.001733728    0.005857127
      7        8          -0.006582512    0.002236360   -0.002829635
      8        6           0.002408477    0.003497120   -0.005791626
      9        8          -0.005198745   -0.004985424   -0.001082921
     10        8           0.007635940   -0.006974964    0.005820232
     11        1          -0.001412619    0.004206120    0.000568186
     12        7           0.002220672    0.003375545   -0.007500710
     13        1          -0.000143837    0.000440685    0.003448259
     14        1           0.001027074   -0.000316656    0.001601475
     15        8          -0.000189580    0.002463683    0.004252879
     16        1           0.001036404   -0.001325934   -0.004595880
 -------------------------------------------------------------------
 Cartesian Forces:  Max     0.007635940 RMS     0.003394045

 GradGradGradGradGradGradGradGradGradGradGradGradGradGradGradGradGradGrad
 Berny optimization.
 Using GEDIIS/GDIIS optimizer.
 FormGI is forming the generalized inverse of G from B-inverse, IUseBI=4.
 Internal  Forces:  Max     0.008977890 RMS     0.002408421
 Search for a local minimum.
 Step number   3 out of a maximum of   79
 All quantities printed in internal units (Hartrees-Bohrs-Radians)
 Mixed Optimization -- RFO/linear search
 Update second derivatives using D2CorX and points    2    3
 DE= -8.74D-03 DEPred=-1.00D-02 R= 8.70D-01
 TightC=F SS=  1.41D+00  RLast= 7.34D-01 DXNew= 8.4853D-01 2.2008D+00
 Trust test= 8.70D-01 RLast= 7.34D-01 DXMaxT set to 8.49D-01
 ITU=  1  1  0
 Use linear search instead of GDIIS.
     Eigenvalues ---    0.00229   0.00236   0.00346   0.00408   0.00433
     Eigenvalues ---    0.00496   0.00641   0.01287   0.01716   0.04344
     Eigenvalues ---    0.04423   0.05208   0.05545   0.06329   0.09012
     Eigenvalues ---    0.12653   0.15737   0.16000   0.16008   0.16233
     Eigenvalues ---    0.17598   0.18125   0.22186   0.23054   0.24992
     Eigenvalues ---    0.25254   0.25320   0.28477   0.29716   0.30622
     Eigenvalues ---    0.30785   0.34778   0.34816   0.34834   0.40613
     Eigenvalues ---    0.42865   0.47692   0.47732   0.55513   0.55674
     Eigenvalues ---    0.80173   0.81237
 RFO step:  Lambda=-6.35272545D-03 EMin= 2.28570772D-03
 Quartic linear search produced a step of  0.16140.
 Iteration  1 RMS(Cart)=  0.09455973 RMS(Int)=  0.01758977
 Iteration  2 RMS(Cart)=  0.02419694 RMS(Int)=  0.00391087
 Iteration  3 RMS(Cart)=  0.00090709 RMS(Int)=  0.00380135
 Iteration  4 RMS(Cart)=  0.00000107 RMS(Int)=  0.00380135
 Iteration  5 RMS(Cart)=  0.00000000 RMS(Int)=  0.00380135
 Variable       Old X    -DE/DX   Delta X   Delta X   Delta X     New X
                                 (Linear)    (Quad)   (Total)
    R1        2.07560   0.00045   0.00158   0.00280   0.00438   2.07998
    R2        2.96915   0.00322   0.00360   0.01270   0.01630   2.98545
    R3        2.85399   0.00532   0.00160   0.02244   0.02404   2.87803
    R4        2.71129   0.00467  -0.01040   0.00773  -0.00267   2.70862
    R5        2.07026  -0.00058   0.00059  -0.00127  -0.00068   2.06958
    R6        2.06272  -0.00041  -0.00031  -0.00167  -0.00197   2.06074
    R7        2.83548   0.00223  -0.00245   0.00605   0.00360   2.83908
    R8        2.32137   0.00740  -0.00236   0.00833   0.00597   2.32734
    R9        2.61569   0.00110  -0.00460  -0.00030  -0.00490   2.61079
   R10        2.31982   0.00590  -0.00254   0.00624   0.00371   2.32353
   R11        2.59164   0.00898  -0.00392   0.02083   0.01690   2.60855
   R12        1.86609  -0.00444   0.00265  -0.00648  -0.00383   1.86226
   R13        1.89516   0.00019  -0.00006   0.00014   0.00008   1.89524
   R14        1.89872  -0.00045   0.00026  -0.00094  -0.00068   1.89804
   R15        1.86116  -0.00225   0.00203  -0.00309  -0.00106   1.86010
    A1        1.87041  -0.00022  -0.00524  -0.00952  -0.01520   1.85522
    A2        1.83556   0.00018  -0.00331  -0.00969  -0.01352   1.82204
    A3        1.96798  -0.00087   0.00567   0.00146   0.00731   1.97530
    A4        1.90396  -0.00246  -0.00373  -0.01515  -0.01926   1.88470
    A5        1.96323   0.00201   0.00289   0.01667   0.01967   1.98290
    A6        1.91729   0.00112   0.00317   0.01339   0.01668   1.93397
    A7        1.91844  -0.00095  -0.00168  -0.00930  -0.01097   1.90746
    A8        1.88855   0.00072  -0.00208   0.00221   0.00012   1.88867
    A9        1.93524  -0.00034  -0.00054  -0.00226  -0.00279   1.93244
   A10        1.93053  -0.00019   0.00174  -0.00108   0.00060   1.93113
   A11        1.85407   0.00127   0.00083   0.01349   0.01430   1.86836
   A12        1.93737  -0.00055   0.00183  -0.00322  -0.00141   1.93596
   A13        2.19487   0.00049   0.00660   0.00672   0.00810   2.20296
   A14        1.95291   0.00189  -0.01001  -0.00091  -0.01604   1.93687
   A15        2.13540  -0.00239   0.00376  -0.00660  -0.00795   2.12745
   A16        2.20320  -0.00335   0.00632  -0.00552  -0.01099   2.19221
   A17        1.94827   0.00352  -0.00708   0.01310  -0.00582   1.94245
   A18        2.13097  -0.00005   0.00071   0.00310  -0.00831   2.12266
   A19        1.92143   0.00101   0.00622   0.01308   0.01930   1.94073
   A20        2.09605  -0.00055  -0.00022  -0.01821  -0.03027   2.06579
   A21        2.08670   0.00081  -0.00051  -0.00988  -0.02223   2.06447
   A22        2.07663  -0.00080  -0.00302  -0.02286  -0.03941   2.03722
   A23        1.94480  -0.00354   0.00305  -0.01927  -0.01623   1.92858
    D1        0.99848   0.00043  -0.00059   0.03815   0.03773   1.03621
    D2        3.10835   0.00008  -0.00079   0.03262   0.03201   3.14035
    D3       -1.04627  -0.00034  -0.00023   0.02866   0.02860  -1.01767
    D4       -0.98026   0.00153   0.00818   0.06165   0.06965  -0.91061
    D5        1.12960   0.00118   0.00797   0.05613   0.06393   1.19353
    D6       -3.02502   0.00076   0.00853   0.05217   0.06052  -2.96450
    D7       -3.11222   0.00050   0.00482   0.04418   0.04900  -3.06321
    D8       -1.00235   0.00015   0.00461   0.03865   0.04328  -0.95907
    D9        1.12622  -0.00028   0.00517   0.03469   0.03987   1.16609
   D10       -0.23051  -0.00174   0.00450  -0.19614  -0.19102  -0.42153
   D11        2.87013   0.00133  -0.00685   0.09842   0.09066   2.96080
   D12        1.77090  -0.00303  -0.00527  -0.21894  -0.22328   1.54762
   D13       -1.41164   0.00004  -0.01662   0.07562   0.05840  -1.35323
   D14       -2.35286  -0.00141  -0.00202  -0.19939  -0.20068  -2.55354
   D15        0.74778   0.00165  -0.01338   0.09517   0.08101   0.82879
   D16       -2.21806  -0.00180  -0.02358  -0.17188  -0.19350  -2.41156
   D17        1.15854   0.00092   0.00868   0.07865   0.08544   1.24397
   D18        1.94744  -0.00236  -0.02294  -0.17284  -0.19378   1.75366
   D19       -0.95915   0.00036   0.00932   0.07769   0.08516  -0.87399
   D20       -0.17695  -0.00138  -0.02232  -0.17431  -0.19481  -0.37176
   D21       -3.08354   0.00134   0.00994   0.07622   0.08413  -2.99941
   D22        1.57721  -0.00113   0.00820  -0.07923  -0.07105   1.50616
   D23       -1.55982   0.00102  -0.00236   0.11591   0.11355  -1.44627
   D24       -0.50661  -0.00057   0.01002  -0.07492  -0.06488  -0.57150
   D25        2.63954   0.00158  -0.00054   0.12022   0.11971   2.75925
   D26       -2.60620  -0.00082   0.00644  -0.08010  -0.07369  -2.67989
   D27        0.53996   0.00133  -0.00412   0.11504   0.11091   0.65087
   D28       -2.97553  -0.00441  -0.06550  -0.29299  -0.35756   2.95010
   D29        0.17045  -0.00236  -0.07580  -0.10558  -0.18231  -0.01186
   D30       -3.12595  -0.00137   0.01969  -0.13205  -0.11204   3.04520
   D31       -0.02334   0.00146   0.00877   0.14815   0.15660   0.13326
         Item               Value     Threshold  Converged?
 Maximum Force            0.008978     0.000450     NO 
 RMS     Force            0.002408     0.000300     NO 
 Maximum Displacement     0.565489     0.001800     NO 
 RMS     Displacement     0.109866     0.001200     NO 
 Predicted change in Energy=-5.052506D-03
 GradGradGradGradGradGradGradGradGradGradGradGradGradGradGradGradGradGrad

                          Input orientation:                          
 ---------------------------------------------------------------------
 Center     Atomic      Atomic             Coordinates (Angstroms)
 Number     Number       Type             X           Y           Z
 ---------------------------------------------------------------------
      1          6           0       -5.697985    2.024876    0.919809
      2          1           0       -6.377164    2.089576    0.056083
      3          6           0       -6.614645    2.037140    2.206451
      4          1           0       -7.302482    1.185747    2.168747
      5          1           0       -5.970825    1.972715    3.084251
      6          6           0       -7.455659    3.281364    2.248107
      7          8           0       -8.551576    3.437388    1.708292
      8          6           0       -5.068660    0.642845    0.803923
      9          8           0       -5.559837   -0.320597    0.218829
     10          8           0       -4.018621    0.494468    1.687587
     11          1           0       -3.669060   -0.426818    1.674094
     12          7           0       -4.690574    3.044474    0.922885
     13          1           0       -3.754733    2.788786    1.177192
     14          1           0       -4.969954    3.989010    1.119387
     15          8           0       -6.744254    4.341699    2.775673
     16          1           0       -7.232633    5.185611    2.640801
 ---------------------------------------------------------------------
                    Distance matrix (angstroms):
                    1          2          3          4          5
     1  C    0.000000
     2  H    1.100679   0.000000
     3  C    1.579830   2.164077   0.000000
     4  H    2.199634   2.477189   1.095176   0.000000
     5  H    2.182194   3.057543   1.090499   1.797436   0.000000
     6  C    2.536249   2.718176   1.502376   2.102706   2.148588
     7  O    3.280226   3.045400   2.441426   2.615749   3.270903
     8  C    1.522988   2.089134   2.510222   2.673471   2.789687
     9  O    2.451877   2.550185   3.259169   3.017956   3.693079
    10  O    2.398311   3.281600   3.064050   3.390151   2.819040
    11  H    3.270518   4.035347   3.876979   4.005846   3.611706
    12  N    1.433341   2.123149   2.522759   3.439345   2.731156
    13  H    2.103814   2.936482   3.131045   4.017391   3.035442
    14  H    2.104206   2.592047   2.774259   3.794749   2.987956
    15  O    3.147472   3.550068   2.377352   3.261903   2.511075
    16  H    3.912442   4.122866   3.237813   4.028228   3.480159
                    6          7          8          9         10
     6  C    0.000000
     7  O    1.231576   0.000000
     8  C    3.839951   4.556102   0.000000
     9  O    4.548212   5.029061   1.229557   0.000000
    10  O    4.460292   5.404525   1.380383   2.279677   0.000000
    11  H    5.330895   6.226735   1.964753   2.388329   0.985466
    12  N    3.075391   3.959620   2.434117   3.546127   2.745691
    13  H    3.884115   4.869544   2.543776   3.720904   2.365171
    14  H    2.820195   3.671391   3.362452   4.442036   3.666021
    15  O    1.381569   2.285497   4.514082   5.447688   4.838821
    16  H    1.957065   2.380223   5.356643   6.243598   5.765875
                   11         12         13         14         15
    11  H    0.000000
    12  N    3.695629   0.000000
    13  H    3.254898   1.002919   0.000000
    14  H    4.636762   1.004398   1.708989   0.000000
    15  O    5.780056   3.055032   3.728795   2.452715   0.000000
    16  H    6.718105   3.741359   4.470202   2.977628   0.984323
                   16
    16  H    0.000000
 Stoichiometry    C4H7NO4
 Framework group  C1[X(C4H7NO4)]
 Deg. of freedom    42
 Full point group                 C1      NOp   1
 Largest Abelian subgroup         C1      NOp   1
 Largest concise Abelian subgroup C1      NOp   1
                         Standard orientation:                         
 ---------------------------------------------------------------------
 Center     Atomic      Atomic             Coordinates (Angstroms)
 Number     Number       Type             X           Y           Z
 ---------------------------------------------------------------------
      1          6           0       -0.441683    0.052173    0.520037
      2          1           0       -0.235231   -0.635265    1.354484
      3          6           0        0.492631   -0.402138   -0.670139
      4          1           0        0.262503   -1.439584   -0.935014
      5          1           0        0.311755    0.260184   -1.517371
      6          6           0        1.936601   -0.362877   -0.257171
      7          8           0        2.555870   -1.263385    0.310605
      8          6           0       -1.882247   -0.249464    0.128523
      9          8           0       -2.472941   -1.308252    0.333118
     10          8           0       -2.368444    0.691055   -0.757194
     11          1           0       -3.268129    0.447534   -1.077203
     12          7           0       -0.288889    1.432383    0.875198
     13          1           0       -0.968750    2.088802    0.539415
     14          1           0        0.638934    1.783549    1.032176
     15          8           0        2.450086    0.914307   -0.374934
     16          1           0        3.332750    0.972132    0.056867
 ---------------------------------------------------------------------
 Rotational constants (GHZ):      3.1421827      0.9220358      0.8101544
 Standard basis: 6-31G (6D, 7F)
 There are    95 symmetry adapted cartesian basis functions of A   symmetry.
 There are    95 symmetry adapted basis functions of A   symmetry.
    95 basis functions,   226 primitive gaussians,    95 cartesian basis functions
    35 alpha electrons       35 beta electrons
       nuclear repulsion energy       461.7200844299 Hartrees.
 NAtoms=   16 NActive=   16 NUniq=   16 SFac= 1.00D+00 NAtFMM=   60 NAOKFM=F Big=F
 Integral buffers will be    262144 words long.
 Raffenetti 2 integral format.
 Two-electron integral symmetry is turned on.
 One-electron integrals computed using PRISM.
 NBasis=    95 RedAO= T EigKep=  4.28D-03  NBF=    95
 NBsUse=    95 1.00D-06 EigRej= -1.00D+00 NBFU=    95
 Initial guess from the checkpoint file:  "D:\file\file\Asp-R-opt-6-31g.chk"
 B after Tr=     0.000000    0.000000    0.000000
         Rot=    0.999760    0.021470   -0.004426   -0.000521 Ang=   2.51 deg.
 ExpMin= 1.61D-01 ExpMax= 5.48D+03 ExpMxC= 8.25D+02 IAcc=1 IRadAn=         1 AccDes= 0.00D+00
 Harris functional with IExCor=  402 and IRadAn=       1 diagonalized for initial guess.
 HarFok:  IExCor=  402 AccDes= 0.00D+00 IRadAn=         1 IDoV= 1 UseB2=F ITyADJ=14
 ICtDFT=  3500011 ScaDFX=  1.000000  1.000000  1.000000  1.000000
 FoFCou: FMM=F IPFlag=           0 FMFlag=      100000 FMFlg1=           0
         NFxFlg=           0 DoJE=T BraDBF=F KetDBF=T FulRan=T
         wScrn=  0.000000 ICntrl=     500 IOpCl=  0 I1Cent=   200000004 NGrid=           0
         NMat0=    1 NMatS0=      1 NMatT0=    0 NMatD0=    1 NMtDS0=    0 NMtDT0=    0
 Petite list used in FoFCou.
 Keep R1 ints in memory in canonical form, NReq=11356412.
 Requested convergence on RMS density matrix=1.00D-08 within 128 cycles.
 Requested convergence on MAX density matrix=1.00D-06.
 Requested convergence on             energy=1.00D-06.
 No special actions if energy rises.
 Integral accuracy reduced to 1.0D-05 until final iterations.
 Initial convergence to 1.0D-05 achieved.  Increase integral accuracy.
 SCF Done:  E(RB3LYP) =  -512.120723451     A.U. after   14 cycles
            NFock= 14  Conv=0.68D-08     -V/T= 2.0055
 Calling FoFJK, ICntrl=      2127 FMM=F ISym2X=0 I1Cent= 0 IOpClX= 0 NMat=1 NMatS=1 NMatT=0.
 ***** Axes restored to original set *****
 -------------------------------------------------------------------
 Center     Atomic                   Forces (Hartrees/Bohr)
 Number     Number              X              Y              Z
 -------------------------------------------------------------------
      1        6          -0.001335151   -0.001580233   -0.006313269
      2        1           0.002136867    0.003624770    0.000324314
      3        6          -0.006377569   -0.006901618    0.005840047
      4        1           0.001718579   -0.000635802    0.000582851
      5        1          -0.000096221   -0.000476942    0.000917250
      6        6           0.010571323   -0.000444157   -0.015696666
      7        8          -0.005527774   -0.001035393    0.003794728
      8        6          -0.014706424   -0.005508852    0.021501144
      9        8           0.002575434    0.001601674   -0.009066556
     10        8           0.009483203    0.001160191   -0.003432359
     11        1          -0.001919234    0.002878259   -0.000871324
     12        7           0.002089431    0.002209283   -0.008576848
     13        1           0.002067537   -0.001245553    0.003818697
     14        1          -0.000381129    0.001395868    0.001585849
     15        8           0.001221017    0.006413824    0.002852372
     16        1          -0.001519888   -0.001455318    0.002739770
 -------------------------------------------------------------------
 Cartesian Forces:  Max     0.021501144 RMS     0.005916317

 GradGradGradGradGradGradGradGradGradGradGradGradGradGradGradGradGradGrad
 Berny optimization.
 Using GEDIIS/GDIIS optimizer.
 FormGI is forming the generalized inverse of G from B-inverse, IUseBI=4.
 Internal  Forces:  Max     0.006541364 RMS     0.002843267
 Search for a local minimum.
 Step number   4 out of a maximum of   79
 All quantities printed in internal units (Hartrees-Bohrs-Radians)
 Mixed Optimization -- RFO/linear search
 Update second derivatives using D2CorX and points    4    3
 DE=  4.52D-04 DEPred=-5.05D-03 R=-8.94D-02
 Trust test=-8.94D-02 RLast= 7.49D-01 DXMaxT set to 4.24D-01
[...]
 ! A1    A(2,1,3)              108.4169         -DE/DX =    0.0                 !
 ! A2    A(2,1,8)              105.8232         -DE/DX =    0.0                 !
 ! A3    A(2,1,12)             109.0513         -DE/DX =    0.0                 !
 ! A4    A(3,1,8)              108.1471         -DE/DX =    0.0                 !
 ! A5    A(3,1,12)             115.9584         -DE/DX =    0.0                 !
 ! A6    A(8,1,12)             108.972          -DE/DX =    0.0                 !
 ! A7    A(1,3,4)              110.978          -DE/DX =    0.0                 !
 ! A8    A(1,3,5)              107.9039         -DE/DX =    0.0                 !
 ! A9    A(1,3,6)              113.6967         -DE/DX =    0.0                 !
 ! A10   A(4,3,5)              108.1902         -DE/DX =    0.0                 !
 ! A11   A(4,3,6)              106.5884         -DE/DX =    0.0                 !
 ! A12   A(5,3,6)              109.3583         -DE/DX =    0.0                 !
 ! A13   A(3,6,7)              126.0868         -DE/DX =    0.0                 !
 ! A14   A(3,6,15)             112.6975         -DE/DX =    0.0                 !
 ! A15   A(7,6,15)             121.2155         -DE/DX =    0.0                 !
 ! A16   A(1,8,9)              126.577          -DE/DX =    0.0                 !
 ! A17   A(1,8,10)             110.9942         -DE/DX =    0.0                 !
 ! A18   A(9,8,10)             122.4            -DE/DX =    0.0                 !
 ! A19   A(8,10,11)            110.649          -DE/DX =    0.0                 !
 ! A20   A(1,12,13)            114.1523         -DE/DX =    0.0                 !
 ! A21   A(1,12,14)            113.6225         -DE/DX =    0.0                 !
 ! A22   A(13,12,14)           113.7458         -DE/DX =    0.0                 !
 ! A23   A(6,15,16)            109.7693         -DE/DX =    0.0                 !
 ! D1    D(2,1,3,4)             70.196          -DE/DX =    0.0                 !
 ! D2    D(2,1,3,5)           -171.4304         -DE/DX =    0.0                 !
 ! D3    D(2,1,3,6)            -49.9495         -DE/DX =    0.0                 !
 ! D4    D(8,1,3,4)            -44.1076         -DE/DX =    0.0                 !
 ! D5    D(8,1,3,5)             74.266          -DE/DX =    0.0                 !
 ! D6    D(8,1,3,6)           -164.2531         -DE/DX =    0.0                 !
 ! D7    D(12,1,3,4)          -166.7965         -DE/DX =    0.0                 !
 ! D8    D(12,1,3,5)           -48.4229         -DE/DX =    0.0                 !
 ! D9    D(12,1,3,6)            73.0579         -DE/DX =    0.0                 !
 ! D10   D(2,1,8,9)            -13.322          -DE/DX =    0.0                 !
 ! D11   D(2,1,8,10)           168.6057         -DE/DX =    0.0                 !
 ! D12   D(3,1,8,9)            102.6831         -DE/DX =    0.0                 !
 ! D13   D(3,1,8,10)           -75.3892         -DE/DX =    0.0                 !
 ! D14   D(12,1,8,9)          -130.4636         -DE/DX =    0.0                 !
 ! D15   D(12,1,8,10)           51.4642         -DE/DX =    0.0                 !
 ! D16   D(2,1,12,13)         -165.9994         -DE/DX =    0.0                 !
 ! D17   D(2,1,12,14)           61.3293         -DE/DX =    0.0                 !
 ! D18   D(3,1,12,13)           71.3265         -DE/DX =    0.0                 !
 ! D19   D(3,1,12,14)          -61.3448         -DE/DX =    0.0                 !
 ! D20   D(8,1,12,13)          -50.9272         -DE/DX =    0.0                 !
 ! D21   D(8,1,12,14)          176.4015         -DE/DX =    0.0                 !
 ! D22   D(1,3,6,7)            131.7323         -DE/DX =    0.0                 !
 ! D23   D(1,3,6,15)           -48.4396         -DE/DX =    0.0                 !
 ! D24   D(4,3,6,7)              9.1372         -DE/DX =    0.0                 !
 ! D25   D(4,3,6,15)          -171.0346         -DE/DX =    0.0                 !
 ! D26   D(5,3,6,7)           -107.6006         -DE/DX =    0.0                 !
 ! D27   D(5,3,6,15)            72.2276         -DE/DX =    0.0                 !
 ! D28   D(3,6,15,16)          179.9107         -DE/DX =    0.0                 !
 ! D29   D(7,6,15,16)           -0.2517         -DE/DX =    0.0                 !
 ! D30   D(1,8,10,11)         -179.1436         -DE/DX =    0.0                 !
 ! D31   D(9,8,10,11)            2.69           -DE/DX =    0.0                 !
 --------------------------------------------------------------------------------
 GradGradGradGradGradGradGradGradGradGradGradGradGradGradGradGradGradGrad

                          Input orientation:                          
 ---------------------------------------------------------------------
 Center     Atomic      Atomic             Coordinates (Angstroms)
 Number     Number       Type             X           Y           Z
 ---------------------------------------------------------------------
      1          6           0       -5.644892    2.064193    0.957068
      2          1           0       -6.251315    2.278419    0.072500
      3          6           0       -6.588685    2.050221    2.215022
      4          1           0       -7.246544    1.176273    2.201390
      5          1           0       -5.957097    1.989467    3.109789
      6          6           0       -7.479997    3.256887    2.315143
      7          8           0       -8.693374    3.247080    2.527921
      8          6           0       -5.103148    0.661634    0.757334
      9          8           0       -5.480935   -0.157724   -0.078097
     10          8           0       -4.119524    0.373373    1.686145
     11          1           0       -3.763083   -0.530130    1.543792
     12          7           0       -4.531902    2.998099    1.006921
     13          1           0       -3.801068    2.737552    1.658184
     14          1           0       -4.817758    3.966069    1.081090
     15          8           0       -6.788882    4.449568    2.142915
     16          1           0       -7.410460    5.207303    2.214995
 ---------------------------------------------------------------------
                    Distance matrix (angstroms):
                    1          2          3          4          5
     1  C    0.000000
     2  H    1.093665   0.000000
     3  C    1.572701   2.180893   0.000000
     4  H    2.214052   2.595646   1.093960   0.000000
     5  H    2.176525   3.065156   1.096906   1.774584   0.000000
     6  C    2.575752   2.737975   1.503498   2.096759   2.134723
     7  O    3.627678   3.595977   2.441330   2.547191   3.067144
     8  C    1.516757   2.097923   2.501969   2.635203   2.833092
     9  O    2.456698   2.559484   3.370538   3.176946   3.872955
    10  O    2.391061   3.282923   3.031218   3.269308   2.831112
    11  H    3.258214   4.030378   3.884943   3.934303   3.689771
    12  N    1.453758   2.085057   2.566776   3.480674   2.733235
    13  H    2.084386   2.954473   2.924603   3.821514   2.704672
    14  H    2.077659   2.433209   2.844725   3.864846   3.052977
    15  O    2.899131   3.047866   2.408764   3.305652   2.771066
    16  H    3.818213   3.809497   3.262282   4.034385   3.642443
                    6          7          8          9         10
     6  C    0.000000
     7  O    1.231931   0.000000
     8  C    3.848574   4.765421   0.000000
     9  O    4.624221   5.357592   1.229641   0.000000
    10  O    4.472479   5.466890   1.383221   2.290863   0.000000
    11  H    5.362083   6.288370   1.958211   2.391699   0.981647
    12  N    3.235689   4.437712   2.418199   3.469459   2.742369
    13  H    3.773040   4.995070   2.610819   3.770842   2.385694
    14  H    3.018832   4.198889   3.332501   4.334650   3.709594
    15  O    1.389169   2.285015   4.371496   5.279277   4.893820
    16  H    1.954223   2.363528   5.302035   6.145312   5.871697
                   11         12         13         14         15
    11  H    0.000000
    12  N    3.650713   0.000000
    13  H    3.269903   1.012989   0.000000
    14  H    4.641362   1.012019   1.695864   0.000000
    15  O    5.857627   2.913967   3.477499   2.290540   0.000000
    16  H    6.831692   3.824412   4.408790   3.090066   0.982709
                   16
    16  H    0.000000
 Stoichiometry    C4H7NO4
 Framework group  C1[X(C4H7NO4)]
 Deg. of freedom    42
 Full point group                 C1      NOp   1
 Largest Abelian subgroup         C1      NOp   1
 Largest concise Abelian subgroup C1      NOp   1
                         Standard orientation:                         
 ---------------------------------------------------------------------
 Center     Atomic      Atomic             Coordinates (Angstroms)
 Number     Number       Type             X           Y           Z
 ---------------------------------------------------------------------
      1          6           0       -0.461474    0.237383    0.433089
      2          1           0       -0.220441   -0.048130    1.460946
      3          6           0        0.532183   -0.504045   -0.534548
      4          1           0        0.321338   -1.577049   -0.565445
      5          1           0        0.387308   -0.097429   -1.542950
      6          6           0        1.976655   -0.361550   -0.142502
      7          8           0        2.799176   -1.274803   -0.058343
      8          6           0       -1.858346   -0.293408    0.173162
      9          8           0       -2.475502   -1.101635    0.864469
     10          8           0       -2.373392    0.221733   -1.002702
     11          1           0       -3.282391   -0.114315   -1.158982
     12          7           0       -0.481276    1.687739    0.335695
     13          1           0       -0.909500    2.040427   -0.511879
     14          1           0        0.406771    2.121025    0.554370
     15          8           0        2.331184    0.953930    0.128815
     16          1           0        3.280008    0.997218    0.380958
 ---------------------------------------------------------------------
 Rotational constants (GHZ):      3.1150929      0.8960244      0.7895088

 **********************************************************************

            Population analysis using the SCF density.

 **********************************************************************

 Orbital symmetries:
       Occupied  (A) (A) (A) (A) (A) (A) (A) (A) (A) (A) (A) (A)
                 (A) (A) (A) (A) (A) (A) (A) (A) (A) (A) (A) (A)
                 (A) (A) (A) (A) (A) (A) (A) (A) (A) (A) (A)
       Virtual   (A) (A) (A) (A) (A) (A) (A) (A) (A) (A) (A) (A)
                 (A) (A) (A) (A) (A) (A) (A) (A) (A) (A) (A) (A)
                 (A) (A) (A) (A) (A) (A) (A) (A) (A) (A) (A) (A)
                 (A) (A) (A) (A) (A) (A) (A) (A) (A) (A) (A) (A)
                 (A) (A) (A) (A) (A) (A) (A) (A) (A) (A) (A) (A)
 The electronic state is 1-A.
 Alpha  occ. eigenvalues --  -19.21097 -19.20902 -19.16290 -19.16192 -14.31321
 Alpha  occ. eigenvalues --  -10.34796 -10.34421 -10.25212 -10.21728  -1.12872
 Alpha  occ. eigenvalues --   -1.12749  -1.04199  -1.04178  -0.90641  -0.79225
 Alpha  occ. eigenvalues --   -0.71886  -0.63498  -0.62130  -0.52897  -0.51280
 Alpha  occ. eigenvalues --   -0.50122  -0.48627  -0.48014  -0.46697  -0.44510
 Alpha  occ. eigenvalues --   -0.43015  -0.42107  -0.40829  -0.39033  -0.38283
 Alpha  occ. eigenvalues --   -0.33460  -0.33112  -0.29759  -0.28846  -0.23037
 Alpha virt. eigenvalues --   -0.03279  -0.01187   0.04389   0.05526   0.11374
 Alpha virt. eigenvalues --    0.12160   0.12920   0.13576   0.17616   0.18640
 Alpha virt. eigenvalues --    0.19556   0.20932   0.25493   0.27423   0.30739
 Alpha virt. eigenvalues --    0.33129   0.35418   0.52558   0.54501   0.55552
 Alpha virt. eigenvalues --    0.56686   0.58512   0.62015   0.63343   0.64786
 Alpha virt. eigenvalues --    0.66027   0.67969   0.71221   0.75614   0.78198
 Alpha virt. eigenvalues --    0.78962   0.80370   0.81668   0.83045   0.87910
 Alpha virt. eigenvalues --    0.90301   0.92075   0.92431   0.93756   0.95130
 Alpha virt. eigenvalues --    0.95364   0.97782   0.98363   1.01170   1.04128
 Alpha virt. eigenvalues --    1.08188   1.09432   1.10542   1.11921   1.16933
 Alpha virt. eigenvalues --    1.18993   1.32185   1.38231   1.39318   1.55944
 Alpha virt. eigenvalues --    1.60053   1.75623   1.87376   1.90004   1.95003
          Condensed to atoms (all electrons):
               1          2          3          4          5          6
     1  C    5.391723   0.388156   0.170573  -0.027128  -0.026015  -0.011442
     2  H    0.388156   0.562791  -0.061989   0.001721   0.004694  -0.003111
     3  C    0.170573  -0.061989   5.620250   0.333710   0.347665   0.207753
     4  H   -0.027128   0.001721   0.333710   0.551096  -0.021907  -0.034184
     5  H   -0.026015   0.004694   0.347665  -0.021907   0.529505  -0.024994
     6  C   -0.011442  -0.003111   0.207753  -0.034184  -0.024994   4.738165
     7  O    0.000881   0.000343  -0.096324   0.001807   0.001004   0.523753
     8  C    0.162187  -0.040828  -0.030300   0.003418  -0.007039  -0.000393
     9  O   -0.089250   0.002981   0.000721   0.001021   0.000027  -0.000102
    10  O   -0.143140   0.003800   0.005391  -0.000213   0.003839   0.000044
    11  H    0.011036  -0.000213  -0.000599  -0.000032  -0.000119   0.000007
    12  N    0.267304  -0.042082  -0.076285   0.005115  -0.000829  -0.010323
    13  H   -0.038720   0.005152  -0.001869  -0.000003   0.003533  -0.000010
    14  H   -0.036279  -0.004229  -0.001905  -0.000075  -0.000287   0.002147
    15  O    0.010099   0.000450  -0.132530   0.003846   0.001330   0.141989
    16  H   -0.000376  -0.000071   0.010595  -0.000211  -0.000237  -0.009684
               7          8          9         10         11         12
     1  C    0.000881   0.162187  -0.089250  -0.143140   0.011036   0.267304
     2  H    0.000343  -0.040828   0.002981   0.003800  -0.000213  -0.042082
     3  C   -0.096324  -0.030300   0.000721   0.005391  -0.000599  -0.076285
     4  H    0.001807   0.003418   0.001021  -0.000213  -0.000032   0.005115
     5  H    0.001004  -0.007039   0.000027   0.003839  -0.000119  -0.000829
     6  C    0.523753  -0.000393  -0.000102   0.000044   0.000007  -0.010323
     7  O    8.071188  -0.000122   0.000000   0.000000   0.000000  -0.000073
     8  C   -0.000122   4.785833   0.522607   0.149002  -0.012050  -0.033202
     9  O    0.000000   0.522607   8.060992  -0.110058   0.005658   0.001621
    10  O    0.000000   0.149002  -0.110058   8.417837   0.227820   0.002671
    11  H    0.000000  -0.012050   0.005658   0.227820   0.376453  -0.000443
    12  N   -0.000073  -0.033202   0.001621   0.002671  -0.000443   6.928916
    13  H    0.000002  -0.011160   0.000134   0.011715  -0.000423   0.324289
    14  H    0.000068   0.004895  -0.000085   0.000048   0.000017   0.325351
    15  O   -0.112063   0.000086   0.000000   0.000001   0.000000  -0.006634
    16  H    0.006335   0.000012   0.000000   0.000000   0.000000   0.000485
              13         14         15         16
     1  C   -0.038720  -0.036279   0.010099  -0.000376
     2  H    0.005152  -0.004229   0.000450  -0.000071
     3  C   -0.001869  -0.001905  -0.132530   0.010595
     4  H   -0.000003  -0.000075   0.003846  -0.000211
     5  H    0.003533  -0.000287   0.001330  -0.000237
     6  C   -0.000010   0.002147   0.141989  -0.009684
     7  O    0.000002   0.000068  -0.112063   0.006335
     8  C   -0.011160   0.004895   0.000086   0.000012
     9  O    0.000134  -0.000085   0.000000   0.000000
    10  O    0.011715   0.000048   0.000001   0.000000
    11  H   -0.000423   0.000017   0.000000   0.000000
    12  N    0.324289   0.325351  -0.006634   0.000485
    13  H    0.434552  -0.028516   0.000234  -0.000012
    14  H   -0.028516   0.410642   0.015645  -0.000046
    15  O    0.000234   0.015645   8.422098   0.221592
    16  H   -0.000012  -0.000046   0.221592   0.381616
 Mulliken charges:
               1
     1  C   -0.029611
     2  H    0.182434
     3  C   -0.294857
     4  H    0.182020
     5  H    0.189830
     6  C    0.480384
     7  O   -0.396800
     8  C    0.507053
     9  O   -0.396268
    10  O   -0.568756
    11  H    0.392888
    12  N   -0.685883
    13  H    0.301100
    14  H    0.312608
    15  O   -0.566144
    16  H    0.390002
 Sum of Mulliken charges =   0.00000
 Mulliken charges with hydrogens summed into heavy atoms:
               1
     1  C    0.152824
     3  C    0.076993
     6  C    0.480384
     7  O   -0.396800
     8  C    0.507053
     9  O   -0.396268
    10  O   -0.175868
    12  N   -0.072175
    15  O   -0.176142
 Electronic spatial extent (au):  <R**2>=           1412.2724
 Charge=              0.0000 electrons
 Dipole moment (field-independent basis, Debye):
    X=              0.4272    Y=              2.1506    Z=             -2.0487  Tot=              3.0008
 Quadrupole moment (field-independent basis, Debye-Ang):
   XX=            -49.2558   YY=            -57.0029   ZZ=            -52.1581
   XY=              6.5786   XZ=              8.7152   YZ=              1.3619
 Traceless Quadrupole moment (field-independent basis, Debye-Ang):
   XX=              3.5498   YY=             -4.1973   ZZ=              0.6475
   XY=              6.5786   XZ=              8.7152   YZ=              1.3619
 Octapole moment (field-independent basis, Debye-Ang**2):
  XXX=            -11.7353  YYY=             10.2668  ZZZ=             -3.0264  XYY=              1.3102
  XXY=             35.1099  XXZ=            -16.8797  XZZ=              4.8148  YZZ=              0.0749
  YYZ=             -7.2133  XYZ=             -2.5857
 Hexadecapole moment (field-independent basis, Debye-Ang**3):
 XXXX=          -1008.7095 YYYY=           -318.8836 ZZZZ=           -146.8581 XXXY=             89.1649
 XXXZ=            108.2192 YYYX=             21.7204 YYYZ=             -8.4741 ZZZX=             14.2135
 ZZZY=             -1.7655 XXYY=           -291.3450 XXZZ=           -212.0119 YYZZ=            -83.4157
 XXYZ=             24.2439 YYXZ=             20.0694 ZZXY=              1.6844
 N-N= 4.596808708466D+02 E-N=-2.120477690666D+03  KE= 5.093003190113D+02
 1|1|UNPC-DESKTOP-4G7U86H|FOpt|RB3LYP|6-31G|C4H7N1O4|SKY|27-Mar-2016|0|
 |# opt b3lyp/6-31g||Asp-R-opt-6-31g||0,1|C,-5.6448920294,2.0641931462,
 0.9570680833|H,-6.251315462,2.2784187111,0.0725000931|C,-6.5886850088,
 2.0502207842,2.215022186|H,-7.2465437808,1.1762728214,2.2013901647|H,-
 5.9570966849,1.9894671737,3.1097887282|C,-7.4799973223,3.2568871989,2.
 3151433071|O,-8.6933739492,3.2470804924,2.5279213068|C,-5.1031477808,0
 .6616337569,0.7573343422|O,-5.4809347194,-0.1577242381,-0.0780970975|O
 ,-4.1195240805,0.3733730738,1.6861453219|H,-3.763083038,-0.5301296047,
 1.5437919334|N,-4.5319017557,2.9980987794,1.0069206308|H,-3.8010675888
 ,2.7375515843,1.6581839828|H,-4.8177579925,3.9660693775,1.0810897433|O
 ,-6.7888821245,4.4495679273,2.1429148789|H,-7.4104601321,5.2073034259,
 2.214995045||Version=IA32W-G09RevD.01|State=1-A|HF=-512.1268507|RMSD=5
 .423e-009|RMSF=7.769e-006|Dipole=0.7142817,0.5008165,0.7955151|Quadrup
 ole=-3.6459508,6.980862,-3.3349112,-4.2237526,3.5128567,-2.9403448|PG=
 C01 [X(C4H7N1O4)]||@


 There are more things in heaven and earth, Horatio,
 than are dreamt of in your philosophy.
                   -- Hamlet, Act I, Scene 5
 Job cpu time:       0 days  0 hours 12 minutes 10.0 seconds.
 File lengths (MBytes):  RWF=      6 Int=      0 D2E=      0 Chk=      2 Scr=      1
 Normal termination of Gaussian 09 at Sun Mar 27 17:11:20 2016.
