 Entering Link 1 = c:\G09w01\l1.exe PID=      4380.
  
 Copyright (c) 1988,1990,1992,1993,1995,1998,2003,2009,2010,
            Gaussian, Inc.  All Rights Reserved.
  
 This is part of the Gaussian(R) 09 program.  It is based on
 the Gaussian(R) 03 system (copyright 2003, Gaussian, Inc.),
 the Gaussian(R) 98 system (copyright 1998, Gaussian, Inc.),
 the Gaussian(R) 94 system (copyright 1995, Gaussian, Inc.),
 the Gaussian 92(TM) system (copyright 1992, Gaussian, Inc.),
 the Gaussian 90(TM) system (copyright 1990, Gaussian, Inc.),
 the Gaussian 88(TM) system (copyright 1988, Gaussian, Inc.),
 the Gaussian 86(TM) system (copyright 1986, Carnegie Mellon
 University), and the Gaussian 82(TM) system (copyright 1983,
 Carnegie Mellon University). Gaussian is a federally registered
 trademark of Gaussian, Inc.
  
 This software contains proprietary and confidential information,
 including trade secrets, belonging to Gaussian, Inc.
  
 This software is provided under written license and may be
 used, copied, transmitted, or stored only in accord with that
 written license.
  
 The following legend is applicable only to US Government
 contracts under FAR:
  
                    RESTRICTED RIGHTS LEGEND
  
 Use, reproduction and disclosure by the US Government is
 subject to restrictions as set forth in subparagraphs (a)
 and (c) of the Commercial Computer Software - Restricted
 Rights clause in FAR 52.227-19.
  
 Gaussian, Inc.
 340 Quinnipiac St., Bldg. 40, Wallingford CT 06492
  
  
 ---------------------------------------------------------------
 Warning -- This program may not be used in any manner that
 competes with the business of Gaussian, Inc. or will provide
 assistance to any competitor of Gaussian, Inc.  The licensee
 of this program is prohibited from giving any competitor of
 Gaussian, Inc. access to this program.  By using this program,
 the user acknowledges that Gaussian, Inc. is engaged in the
 business of creating and licensing software in the field of
 computational chemistry and represents and warrants to the
 licensee that it is not a competitor of Gaussian, Inc. and that
 it will not use this program in any manner prohibited above.
 ---------------------------------------------------------------
  

 Cite this work as:
 Gaussian 09, Revision B.01,
 M. J. Frisch, G. W. Trucks, H. B. Schlegel, G. E. Scuseria, 
 M. A. Robb, J. R. Cheeseman, G. Scalmani, V. Barone, B. Mennucci, 
 G. A. Petersson, H. Nakatsuji, M. Caricato, X. Li, H. P. Hratchian, 
 A. F. Izmaylov, J. Bloino, G. Zheng, J. L. Sonnenberg, M. Hada, 
 M. Ehara, K. Toyota, R. Fukuda, J. Hasegawa, M. Ishida, T. Nakajima, 
 Y. Honda, O. Kitao, H. Nakai, T. Vreven, J. A. Montgomery, Jr., 
 J. E. Peralta, F. Ogliaro, M. Bearpark, J. J. Heyd, E. Brothers, 
 K. N. Kudin, V. N. Staroverov, T. Keith, R. Kobayashi, J. Normand, 
 K. Raghavachari, A. Rendell, J. C. Burant, S. S. Iyengar, J. Tomasi, 
 M. Cossi, N. Rega, J. M. Millam, M. Klene, J. E. Knox, J. B. Cross, 
 V. Bakken, C. Adamo, J. Jaramillo, R. Gomperts, R. E. Stratmann, 
 O. Yazyev, A. J. Austin, R. Cammi, C. Pomelli, J. W. Ochterski, 
 R. L. Martin, K. Morokuma, V. G. Zakrzewski, G. A. Voth, 
 P. Salvador, J. J. Dannenberg, S. Dapprich, A. D. Daniels, 
 O. Farkas, J. B. Foresman, J. V. Ortiz, J. Cioslowski, 
 and D. J. Fox, Gaussian, Inc., Wallingford CT, 2010.
 
 ******************************************
 Gaussian 09:  IA32W-G09RevB.01 12-Aug-2010
                16-Apr-2016 
 ******************************************
 %chk=Phe-S-opt-freq-cpcm-w-tsa2-6-311++gdp.chk
 ----------------------------------------------------------------------
 #p opt=(calcfc,ts) freq rb3lyp/6-311++g(d,p) scrf=(cpcm,solvent=water)
  iop(1/11=1) nosymm
 ----------------------------------------------------------------------
 1/5=1,10=4,11=1,14=-1,18=20,26=3,38=1/1,3;
 2/9=110,12=2,15=1,17=6,18=5,40=1/2;
 3/5=4,6=6,7=1111,11=2,16=1,25=1,30=1,70=2101,71=2,72=1,74=-5,116=1/1,2,3;
 4//1;
 5/5=2,38=5,53=1/2;
 8/6=4,10=90,11=11/1;
 11/6=1,8=1,9=11,15=111,16=1,31=1/1,2,10;
 10/6=1,7=6,13=1,31=1/2;
 6/7=2,8=2,9=2,10=2,28=1/1;
 7/10=1,18=20,25=1,30=1/1,2,3,16;
 1/5=1,10=4,11=1,14=-1,18=20/3(2);
 2/9=110,15=1/2;
 99//99;
 2/9=110,15=1/2;
 3/5=4,6=6,7=1111,11=2,16=1,25=1,30=1,70=2105,71=1,72=1,74=-5,116=1/1,2,3;
 4/5=5,16=3/1;
 5/5=2,38=5,53=1/2;
 7/30=1/1,2,3,16;
 1/5=1,11=1,14=-1,18=20/3(-5);
 2/9=110,15=1/2;
 6/7=2,8=2,9=2,10=2,19=2,28=1/1;
 99/9=1/99;
 Leave Link    1 at Sat Apr 16 01:11:55 2016, MaxMem=          0 cpu:       0.0
 (Enter c:\G09w01\l101.exe)
 -------------------------------------
 Phe-S-opt-freq-cpcm-w-tsa2-6-311++gdp
 -------------------------------------
 Symbolic Z-matrix:
 Charge =  0 Multiplicity = 1
 N                    -2.93948  -1.33048  -0.40109 
 H                    -3.2847   -0.83202  -1.21646 
 C                    -1.66923  -0.76001   0.0556 
 H                    -1.82998  -0.36725   1.61903 
 C                    -0.57934  -1.00357  -1.01386 
 C                    -1.7682    0.72259   0.42036 
 H                    -0.56741  -2.08141  -1.19584 
 H                    -0.88845  -0.5208   -1.94501 
 C                     0.80114  -0.52563  -0.61746 
 O                    -2.21939   1.47267  -0.60541 
 C                     1.33473   0.6558   -1.14503 
 C                     1.57256  -1.25538   0.29723 
 H                     0.75647   1.22986  -1.86163 
 C                     2.60251   1.10109  -0.76709 
 C                     2.83855  -0.81407   0.67775 
 H                     1.18201  -2.18008   0.7106 
 H                     2.99941   2.01738  -1.19001 
 C                     3.35786   0.36803   0.14679 
 H                     3.42176  -1.39468   1.38397 
 H                     4.3439    0.71064   0.43971 
 H                    -3.65071  -1.25488   0.31998 
 O                    -1.49471   1.19289   1.50255 
 H                    -2.27793   2.39613  -0.31294 
 
 NAtoms=     23 NQM=     23 NQMF=      0 NMic=      0 NMicF=      0 NTot=     23.
 Add atom      4 valence  3 ND=      2 dihedral       3      4      6     22
                    Isotopes and Nuclear Properties:
 (Nuclear quadrupole moments (NQMom) in fm**2, nuclear magnetic moments (NMagM)
  in nuclear magnetons)

  Atom         1           2           3           4           5           6           7           8           9          10
 IAtWgt=          14           1          12           1          12          12           1           1          12          16
 AtmWgt=  14.0030740   1.0078250  12.0000000   1.0078250  12.0000000  12.0000000   1.0078250   1.0078250  12.0000000  15.9949146
 NucSpn=           2           1           0           1           0           0           1           1           0           0
 AtZEff=   0.0000000   0.0000000   0.0000000   0.0000000   0.0000000   0.0000000   0.0000000   0.0000000   0.0000000   0.0000000
 NQMom=    2.0440000   0.0000000   0.0000000   0.0000000   0.0000000   0.0000000   0.0000000   0.0000000   0.0000000   0.0000000
 NMagM=    0.4037610   2.7928460   0.0000000   2.7928460   0.0000000   0.0000000   2.7928460   2.7928460   0.0000000   0.0000000

  Atom        11          12          13          14          15          16          17          18          19          20
 IAtWgt=          12          12           1          12          12           1           1          12           1           1
 AtmWgt=  12.0000000  12.0000000   1.0078250  12.0000000  12.0000000   1.0078250   1.0078250  12.0000000   1.0078250   1.0078250
 NucSpn=           0           0           1           0           0           1           1           0           1           1
 AtZEff=   0.0000000   0.0000000   0.0000000   0.0000000   0.0000000   0.0000000   0.0000000   0.0000000   0.0000000   0.0000000
 NQMom=    0.0000000   0.0000000   0.0000000   0.0000000   0.0000000   0.0000000   0.0000000   0.0000000   0.0000000   0.0000000
 NMagM=    0.0000000   0.0000000   2.7928460   0.0000000   0.0000000   2.7928460   2.7928460   0.0000000   2.7928460   2.7928460

  Atom        21          22          23
 IAtWgt=           1          16           1
 AtmWgt=   1.0078250  15.9949146   1.0078250
 NucSpn=           1           0           1
 AtZEff=   0.0000000   0.0000000   0.0000000
 NQMom=    0.0000000   0.0000000   0.0000000
 NMagM=    2.7928460   0.0000000   2.7928460
 Leave Link  101 at Sat Apr 16 01:11:56 2016, MaxMem=   33554432 cpu:       0.0
 (Enter c:\G09w01\l103.exe)

 GradGradGradGradGradGradGradGradGradGradGradGradGradGradGradGradGradGrad
 Berny optimization.
 Initialization pass.
                           ----------------------------
                           !    Initial Parameters    !
                           ! (Angstroms and Degrees)  !
 --------------------------                            --------------------------
 ! Name  Definition              Value          Derivative Info.                !
 --------------------------------------------------------------------------------
 ! R1    R(1,2)                  1.0161         calculate D2E/DX2 analytically  !
 ! R2    R(1,3)                  1.4654         calculate D2E/DX2 analytically  !
 ! R3    R(1,21)                 1.0156         calculate D2E/DX2 analytically  !
 ! R4    R(3,4)                  1.62           calculate D2E/DX2 analytically  !
 ! R5    R(3,5)                  1.5463         calculate D2E/DX2 analytically  !
 ! R6    R(3,6)                  1.53           calculate D2E/DX2 analytically  !
 ! R7    R(4,6)                  1.6212         calculate D2E/DX2 analytically  !
 ! R8    R(4,22)                 1.6            calculate D2E/DX2 analytically  !
 ! R9    R(5,7)                  1.0932         calculate D2E/DX2 analytically  !
 ! R10   R(5,8)                  1.0935         calculate D2E/DX2 analytically  !
 ! R11   R(5,9)                  1.5137         calculate D2E/DX2 analytically  !
 ! R12   R(6,10)                 1.3485         calculate D2E/DX2 analytically  !
 ! R13   R(6,22)                 1.2112         calculate D2E/DX2 analytically  !
 ! R14   R(9,11)                 1.3996         calculate D2E/DX2 analytically  !
 ! R15   R(9,12)                 1.4015         calculate D2E/DX2 analytically  !
 ! R16   R(10,23)                0.9704         calculate D2E/DX2 analytically  !
 ! R17   R(11,13)                1.0851         calculate D2E/DX2 analytically  !
 ! R18   R(11,14)                1.3958         calculate D2E/DX2 analytically  !
 ! R19   R(12,15)                1.3937         calculate D2E/DX2 analytically  !
 ! R20   R(12,16)                1.0856         calculate D2E/DX2 analytically  !
 ! R21   R(14,17)                1.0844         calculate D2E/DX2 analytically  !
 ! R22   R(14,18)                1.394          calculate D2E/DX2 analytically  !
 ! R23   R(15,18)                1.3961         calculate D2E/DX2 analytically  !
 ! R24   R(15,19)                1.0844         calculate D2E/DX2 analytically  !
 ! R25   R(18,20)                1.0842         calculate D2E/DX2 analytically  !
 ! A1    A(2,1,3)              110.7077         calculate D2E/DX2 analytically  !
 ! A2    A(2,1,21)             107.1744         calculate D2E/DX2 analytically  !
 ! A3    A(3,1,21)             110.9023         calculate D2E/DX2 analytically  !
 ! A4    A(1,3,4)              108.0067         calculate D2E/DX2 analytically  !
 ! A5    A(1,3,5)              109.5185         calculate D2E/DX2 analytically  !
 ! A6    A(1,3,6)              113.2936         calculate D2E/DX2 analytically  !
 ! A7    A(4,3,5)              140.8608         calculate D2E/DX2 analytically  !
 ! A8    A(5,3,6)              111.2916         calculate D2E/DX2 analytically  !
 ! A9    A(3,4,22)              98.3577         calculate D2E/DX2 analytically  !
 ! A10   A(3,5,7)              106.1487         calculate D2E/DX2 analytically  !
 ! A11   A(3,5,8)              108.6733         calculate D2E/DX2 analytically  !
 ! A12   A(3,5,9)              114.3281         calculate D2E/DX2 analytically  !
 ! A13   A(7,5,8)              107.2561         calculate D2E/DX2 analytically  !
 ! A14   A(7,5,9)              110.1796         calculate D2E/DX2 analytically  !
 ! A15   A(8,5,9)              109.9635         calculate D2E/DX2 analytically  !
 ! A16   A(3,6,10)             112.2901         calculate D2E/DX2 analytically  !
 ! A17   A(3,6,22)             125.0748         calculate D2E/DX2 analytically  !
 ! A18   A(4,6,10)             157.4577         calculate D2E/DX2 analytically  !
 ! A19   A(10,6,22)            122.6296         calculate D2E/DX2 analytically  !
 ! A20   A(5,9,11)             121.0317         calculate D2E/DX2 analytically  !
 ! A21   A(5,9,12)             120.5629         calculate D2E/DX2 analytically  !
 ! A22   A(11,9,12)            118.404          calculate D2E/DX2 analytically  !
 ! A23   A(6,10,23)            108.6777         calculate D2E/DX2 analytically  !
 ! A24   A(9,11,13)            119.4944         calculate D2E/DX2 analytically  !
 ! A25   A(9,11,14)            120.8973         calculate D2E/DX2 analytically  !
 ! A26   A(13,11,14)           119.6075         calculate D2E/DX2 analytically  !
 ! A27   A(9,12,15)            120.8848         calculate D2E/DX2 analytically  !
 ! A28   A(9,12,16)            119.6047         calculate D2E/DX2 analytically  !
 ! A29   A(15,12,16)           119.5094         calculate D2E/DX2 analytically  !
 ! A30   A(11,14,17)           119.7612         calculate D2E/DX2 analytically  !
 ! A31   A(11,14,18)           120.1262         calculate D2E/DX2 analytically  !
 ! A32   A(17,14,18)           120.1122         calculate D2E/DX2 analytically  !
 ! A33   A(12,15,18)           120.1446         calculate D2E/DX2 analytically  !
 ! A34   A(12,15,19)           119.7895         calculate D2E/DX2 analytically  !
 ! A35   A(18,15,19)           120.065          calculate D2E/DX2 analytically  !
 ! A36   A(14,18,15)           119.5426         calculate D2E/DX2 analytically  !
 ! A37   A(14,18,20)           120.2498         calculate D2E/DX2 analytically  !
 ! A38   A(15,18,20)           120.2069         calculate D2E/DX2 analytically  !
 ! D1    D(2,1,3,4)            125.1753         calculate D2E/DX2 analytically  !
 ! D2    D(2,1,3,5)            -66.1558         calculate D2E/DX2 analytically  !
 ! D3    D(2,1,3,6)             58.738          calculate D2E/DX2 analytically  !
 ! D4    D(21,1,3,4)             6.3406         calculate D2E/DX2 analytically  !
 ! D5    D(21,1,3,5)           175.0095         calculate D2E/DX2 analytically  !
 ! D6    D(21,1,3,6)           -60.0966         calculate D2E/DX2 analytically  !
 ! D7    D(1,3,4,22)          -121.6401         calculate D2E/DX2 analytically  !
 ! D8    D(5,3,4,22)            75.4208         calculate D2E/DX2 analytically  !
 ! D9    D(1,3,5,7)            -55.0087         calculate D2E/DX2 analytically  !
 ! D10   D(1,3,5,8)             60.0691         calculate D2E/DX2 analytically  !
 ! D11   D(1,3,5,9)           -176.6799         calculate D2E/DX2 analytically  !
 ! D12   D(4,3,5,7)            107.7721         calculate D2E/DX2 analytically  !
 ! D13   D(4,3,5,8)           -137.1501         calculate D2E/DX2 analytically  !
 ! D14   D(4,3,5,9)            -13.8991         calculate D2E/DX2 analytically  !
 ! D15   D(6,3,5,7)            178.9454         calculate D2E/DX2 analytically  !
 ! D16   D(6,3,5,8)            -65.9769         calculate D2E/DX2 analytically  !
 ! D17   D(6,3,5,9)             57.2742         calculate D2E/DX2 analytically  !
 ! D18   D(1,3,6,10)           -57.187          calculate D2E/DX2 analytically  !
 ! D19   D(1,3,6,22)           121.9751         calculate D2E/DX2 analytically  !
 ! D20   D(5,3,6,10)            66.744          calculate D2E/DX2 analytically  !
 ! D21   D(5,3,6,22)          -114.0939         calculate D2E/DX2 analytically  !
 ! D22   D(3,4,6,22)          -159.441          calculate D2E/DX2 analytically  !
 ! D23   D(3,5,9,11)          -103.6391         calculate D2E/DX2 analytically  !
 ! D24   D(3,5,9,12)            75.9194         calculate D2E/DX2 analytically  !
 ! D25   D(7,5,9,11)           136.931          calculate D2E/DX2 analytically  !
 ! D26   D(7,5,9,12)           -43.5105         calculate D2E/DX2 analytically  !
 ! D27   D(8,5,9,11)            18.9128         calculate D2E/DX2 analytically  !
 ! D28   D(8,5,9,12)          -161.5287         calculate D2E/DX2 analytically  !
 ! D29   D(3,6,10,23)          178.9139         calculate D2E/DX2 analytically  !
 ! D30   D(4,6,10,23)          109.0906         calculate D2E/DX2 analytically  !
 ! D31   D(22,6,10,23)          -0.2718         calculate D2E/DX2 analytically  !
 ! D32   D(5,9,11,13)           -0.9968         calculate D2E/DX2 analytically  !
 ! D33   D(5,9,11,14)          179.3384         calculate D2E/DX2 analytically  !
 ! D34   D(12,9,11,13)         179.4353         calculate D2E/DX2 analytically  !
 ! D35   D(12,9,11,14)          -0.2295         calculate D2E/DX2 analytically  !
 ! D36   D(5,9,12,15)         -179.3114         calculate D2E/DX2 analytically  !
 ! D37   D(5,9,12,16)            1.0731         calculate D2E/DX2 analytically  !
 ! D38   D(11,9,12,15)           0.2585         calculate D2E/DX2 analytically  !
 ! D39   D(11,9,12,16)        -179.3569         calculate D2E/DX2 analytically  !
 ! D40   D(9,11,14,17)         179.7906         calculate D2E/DX2 analytically  !
 ! D41   D(9,11,14,18)           0.0344         calculate D2E/DX2 analytically  !
 ! D42   D(13,11,14,17)          0.1262         calculate D2E/DX2 analytically  !
 ! D43   D(13,11,14,18)       -179.63           calculate D2E/DX2 analytically  !
 ! D44   D(9,12,15,18)          -0.0926         calculate D2E/DX2 analytically  !
 ! D45   D(9,12,15,19)        -179.7675         calculate D2E/DX2 analytically  !
 ! D46   D(16,12,15,18)        179.5233         calculate D2E/DX2 analytically  !
 ! D47   D(16,12,15,19)         -0.1517         calculate D2E/DX2 analytically  !
 ! D48   D(11,14,18,15)          0.1364         calculate D2E/DX2 analytically  !
 ! D49   D(11,14,18,20)        179.8342         calculate D2E/DX2 analytically  !
 ! D50   D(17,14,18,15)       -179.6189         calculate D2E/DX2 analytically  !
 ! D51   D(17,14,18,20)          0.0789         calculate D2E/DX2 analytically  !
 ! D52   D(12,15,18,14)         -0.1077         calculate D2E/DX2 analytically  !
 ! D53   D(12,15,18,20)       -179.8056         calculate D2E/DX2 analytically  !
 ! D54   D(19,15,18,14)        179.5664         calculate D2E/DX2 analytically  !
 ! D55   D(19,15,18,20)         -0.1315         calculate D2E/DX2 analytically  !
 --------------------------------------------------------------------------------
 Trust Radius=3.00D-01 FncErr=1.00D-07 GrdErr=1.00D-06
 Number of steps in this run=    128 maximum allowed number of steps=    138.
 Search for a saddle point of order  1.
 GradGradGradGradGradGradGradGradGradGradGradGradGradGradGradGradGradGrad

 Leave Link  103 at Sat Apr 16 01:11:56 2016, MaxMem=   33554432 cpu:       0.0
 (Enter c:\G09w01\l202.exe)
                          Input orientation:                          
 ---------------------------------------------------------------------
 Center     Atomic      Atomic             Coordinates (Angstroms)
 Number     Number       Type             X           Y           Z
 ---------------------------------------------------------------------
      1          7           0       -2.939484   -1.330480   -0.401093
      2          1           0       -3.284703   -0.832016   -1.216463
      3          6           0       -1.669234   -0.760012    0.055599
      4          1           0       -1.829978   -0.367250    1.619034
      5          6           0       -0.579336   -1.003567   -1.013865
      6          6           0       -1.768202    0.722586    0.420362
      7          1           0       -0.567409   -2.081415   -1.195844
      8          1           0       -0.888453   -0.520801   -1.945008
      9          6           0        0.801135   -0.525627   -0.617459
     10          8           0       -2.219386    1.472671   -0.605411
     11          6           0        1.334732    0.655797   -1.145034
     12          6           0        1.572563   -1.255381    0.297228
     13          1           0        0.756469    1.229857   -1.861634
     14          6           0        2.602505    1.101092   -0.767094
     15          6           0        2.838552   -0.814072    0.677752
     16          1           0        1.182012   -2.180079    0.710598
     17          1           0        2.999413    2.017381   -1.190007
     18          6           0        3.357856    0.368034    0.146787
     19          1           0        3.421764   -1.394677    1.383966
     20          1           0        4.343899    0.710642    0.439711
     21          1           0       -3.650714   -1.254884    0.319977
     22          8           0       -1.494714    1.192887    1.502550
     23          1           0       -2.277934    2.396125   -0.312938
 ---------------------------------------------------------------------
                    Distance matrix (angstroms):
                    1          2          3          4          5
     1  N    0.000000
     2  H    1.016106   0.000000
     3  C    1.465448   2.057442   0.000000
     4  H    2.497944   3.220601   1.620008   0.000000
     5  C    2.460215   2.718361   1.546270   2.983481   0.000000
     6  C    2.502353   2.719514   1.530014   1.621226   2.539688
     7  H    2.611948   2.990838   2.127495   3.529302   1.093167
     8  H    2.691836   2.523816   2.160849   3.689504   1.093455
     9  C    3.832340   4.140864   2.571122   3.456839   1.513692
    10  O    2.901369   2.611488   2.392587   2.912920   2.998058
    11  C    4.771548   4.853645   3.531267   4.324591   2.536602
    12  C    4.566384   5.105245   3.288316   3.756758   2.532399
    13  H    4.727428   4.582427   3.676873   4.621202   2.737018
    14  C    6.063014   6.212733   4.731626   5.243715   3.822904
    15  C    5.900532   6.409573   4.550839   4.783392   3.818303
    16  H    4.352517   5.048008   3.251956   3.630935   2.731355
    17  H    6.863021   6.899991   5.573303   6.074553   4.686640
    18  C    6.545351   6.886375   5.152906   5.442589   4.327804
    19  H    6.607271   7.214951   5.299587   5.356460   4.680957
    20  H    7.610571   7.957278   6.202268   6.377258   5.411990
    21  H    1.015630   1.635062   2.059383   2.406350   3.357925
    22  O    3.475428   3.833709   2.436789   1.600000   3.463332
    23  H    3.785895   3.500119   3.235357   3.401385   3.864510
                    6          7          8          9         10
     6  C    0.000000
     7  H    3.452021   0.000000
     8  H    2.813351   1.760634   0.000000
     9  C    3.039178   2.151260   2.148748   0.000000
    10  O    1.348482   3.963479   2.745876   3.621724   0.000000
    11  C    3.476079   3.333624   2.639487   1.399580   3.686493
    12  C    3.884357   2.736983   3.409374   1.401533   4.757720
    13  H    3.440755   3.627734   2.403648   2.152136   3.239254
    14  C    4.544931   4.512265   4.025519   2.431777   4.838889
    15  C    4.863101   4.088654   4.566776   2.431428   5.697231
    16  H    4.148911   2.589349   3.753968   2.155461   5.161780
    17  H    5.196146   5.433450   4.704030   3.409857   5.279614
    18  C    5.145583   4.817693   4.816303   2.814165   5.735125
    19  H    5.687450   4.800055   5.515768   3.410080   6.633391
    20  H    6.112143   5.881460   5.880548   3.898352   6.689520
    21  H    2.732090   3.533785   3.646796   4.607555   3.216302
    22  O    1.211243   4.343072   3.897427   3.566322   2.246537
    23  H    1.896915   4.873785   3.619774   4.255589   0.970431
                   11         12         13         14         15
    11  C    0.000000
    12  C    2.406093   0.000000
    13  H    1.085103   3.391622   0.000000
    14  C    1.395842   2.783258   2.149988   0.000000
    15  C    2.782901   1.393657   3.867971   2.410633   0.000000
    16  H    3.392475   1.085574   4.292450   3.868780   2.147366
    17  H    2.151069   3.867653   2.470238   1.084425   3.395810
    18  C    2.417569   2.417722   3.397603   1.393954   1.396057
    19  H    3.867297   2.149406   4.952363   3.395159   1.084425
    20  H    3.401398   3.400860   4.293650   2.154364   2.155803
    21  H    5.536392   5.223327   5.509685   6.770162   6.514053
    22  O    3.912024   4.105485   4.048077   4.684753   4.846171
    23  H    4.095422   5.341547   3.600867   5.069719   6.120887
                   16         17         18         19         20
    16  H    0.000000
    17  H    4.953172   0.000000
    18  C    3.397802   2.153101   0.000000
    19  H    2.467138   4.294864   2.154494   0.000000
    20  H    4.292689   2.484188   1.084189   2.484818   0.000000
    21  H    4.935971   7.563859   7.196104   7.153430   8.233557
    22  O    4.378236   5.303473   5.105479   5.557095   5.954124
    23  H    5.827563   5.363123   6.007215   7.052391   6.874300
                   21         22         23
    21  H    0.000000
    22  O    3.469639   0.000000
    23  H    3.951579   2.314565   0.000000
 Symmetry turned off by external request.
 Stoichiometry    C9H11NO2
 Framework group  C1[X(C9H11NO2)]
 Deg. of freedom    63
 Full point group                 C1      NOp   1
 Rotational constants (GHZ):      1.7275020      0.5835126      0.5354781
 Leave Link  202 at Sat Apr 16 01:11:56 2016, MaxMem=   33554432 cpu:       0.0
 (Enter c:\G09w01\l301.exe)
 Standard basis: 6-311++G(d,p) (5D, 7F)
 Ernie: Thresh=  0.10000D-02 Tol=  0.10000D-05 Strict=F.
 Integral buffers will be    262144 words long.
 Raffenetti 2 integral format.
 Two-electron integral symmetry is turned off.
   341 basis functions,   531 primitive gaussians,   353 cartesian basis functions
    44 alpha electrons       44 beta electrons
       nuclear repulsion energy       680.3861109398 Hartrees.
 IExCor=  402 DFT=T Ex+Corr=B3LYP ExCW=0 ScaHFX=  0.200000
 ScaDFX=  0.800000  0.720000  1.000000  0.810000 ScalE2=  1.000000  1.000000
 IRadAn=      0 IRanWt=     -1 IRanGd=            0 ICorTp=0
 NAtoms=   23 NActive=   23 NUniq=   23 SFac= 1.00D+00 NAtFMM=   50 NAOKFM=F Big=F
 ------------------------------------------------------------------------------
 Polarizable Continuum Model (PCM)
 =================================
 Model                : C-PCM.
 Atomic radii         : UFF (Universal Force Field).
 Polarization charges : Total charges.
 Charge compensation  : None.
 Solution method      : Matrix inversion.
 Cavity type          : Scaled VdW (van der Waals Surface) (Alpha=1.100).
 Cavity algorithm     : GePol (No added spheres)
                        Default sphere list used, NSphG=   23.
                        Lebedev-Laikov grids with approx.  5.0 points / Ang**2.
                        Smoothing algorithm: Karplus/York (Gamma=1.0000).
                        Polarization charges: spherical gaussians, with
                                              point-specific exponents (IZeta= 3).
                        Self-potential: point-specific (ISelfS= 7).
                        Self-field    : sphere-specific E.n sum rule (ISelfD= 2).
 1st derivatives      : Analytical E(r).r(x)/FMM algorithm (CHGder, D1EAlg=3).
                        Cavity 1st derivative terms included.
 2nd derivatives      : Analytical E(r).r(xy)/FMM algorithm (CHGder, D2EAlg=3).
                        Cavity 2nd derivative terms included.
 Solvent              : Water, Eps=  78.355300 Eps(inf)=   1.777849
 ------------------------------------------------------------------------------
 GePol: Number of generator spheres                  =      23
 GePol: Total number of spheres                      =      23
 GePol: Number of exposed spheres                    =      23 (100.00%)
 GePol: Number of points                             =    1810
 GePol: Average weight of points                     =       0.13
 GePol: Minimum weight of points                     =   0.12D-11
 GePol: Maximum weight of points                     =    0.20577
 GePol: Number of points with low weight             =     125
 GePol: Fraction of low-weight points (<1% of avg)   =       6.91%
 GePol: Cavity surface area                          =    241.155 Ang**2
 GePol: Cavity volume                                =    246.539 Ang**3
 Leave Link  301 at Sat Apr 16 01:11:57 2016, MaxMem=   33554432 cpu:       1.0
 (Enter c:\G09w01\l302.exe)
 NPDir=0 NMtPBC=     1 NCelOv=     1 NCel=       1 NClECP=     1 NCelD=      1
         NCelK=      1 NCelE2=     1 NClLst=     1 CellRange=     0.0.
 One-electron integrals computed using PRISM.
 NBasis=   341 RedAO= T  NBF=   341
 NBsUse=   340 1.00D-06 NBFU=   340
 Precomputing XC quadrature grid using
 IXCGrd= 2 IRadAn=           0 IRanWt=          -1 IRanGd=           0 AccXCQ= 0.00D+00.
 NRdTot=    1493 NPtTot=      190488 NUsed=      197450 NTot=      197466
 NSgBfM=   353   353   353   353   353 NAtAll=    23    23.
 Leave Link  302 at Sat Apr 16 01:11:58 2016, MaxMem=   33554432 cpu:       1.0
 (Enter c:\G09w01\l303.exe)
 DipDrv:  MaxL=1.
 Leave Link  303 at Sat Apr 16 01:11:59 2016, MaxMem=   33554432 cpu:       0.0
 (Enter c:\G09w01\l401.exe)
 Harris functional with IExCor=  402 diagonalized for initial guess.
 ExpMin= 3.60D-02 ExpMax= 8.59D+03 ExpMxC= 1.30D+03 IAcc=3 IRadAn=         0 AccDes= 0.00D+00
 HarFok:  IExCor=  402 AccDes= 0.00D+00 IRadAn=         0 IDoV= 1
 ScaDFX=  1.000000  1.000000  1.000000  1.000000
 FoFCou: FMM=F IPFlag=           0 FMFlag=      100000 FMFlg1=           0
         NFxFlg=           0 DoJE=T BraDBF=F KetDBF=T FulRan=T
         Omega=  0.000000  0.000000  1.000000  0.000000  0.000000 ICntrl=     500 IOpCl=  0
         NMat0=    1 NMatS0=    1 NMatT0=    0 NMatD0=    1 NMtDS0=    0 NMtDT0=    0
         I1Cent=           4 NGrid=           0.
 Symmetry not used in FoFCou.
 Harris En= -554.839007193813    
 Leave Link  401 at Sat Apr 16 01:12:18 2016, MaxMem=   33554432 cpu:      19.0
 (Enter c:\G09w01\l502.exe)
 Closed shell SCF:
 Requested convergence on RMS density matrix=1.00D-08 within 128 cycles.
 Requested convergence on MAX density matrix=1.00D-06.
 Requested convergence on             energy=1.00D-06.
 No special actions if energy rises.
 Using DIIS extrapolation, IDIIS=  1040.
 Two-electron integral symmetry not used.
       197253 words used for storage of precomputed grid.
 IEnd=      593298 IEndB=      593298 NGot=    33554432 MDV=    33102737
 LenX=    33102737 LenY=    32977687
 Fock matrices will be formed incrementally for  20 cycles.

 Cycle   1  Pass 1  IDiag  1:
 FoFCou: FMM=F IPFlag=           0 FMFlag=      100000 FMFlg1=           0
         NFxFlg=           0 DoJE=F BraDBF=F KetDBF=F FulRan=T
         Omega=  0.000000  0.000000  1.000000  0.000000  0.000000 ICntrl=       0 IOpCl=  0
         NMat0=    1 NMatS0=    1 NMatT0=    0 NMatD0=    1 NMtDS0=    0 NMtDT0=    0
         I1Cent=           0 NGrid=           0.
 Symmetry not used in FoFCou.
 E= -554.519241349957    
 DIIS: error= 2.06D-02 at cycle   1 NSaved=   1.
 NSaved= 1 IEnMin= 1 EnMin= -554.519241349957     IErMin= 1 ErrMin= 2.06D-02
 ErrMax= 2.06D-02 EMaxC= 1.00D-01 BMatC= 3.71D-01 BMatP= 3.71D-01
 IDIUse=3 WtCom= 7.94D-01 WtEn= 2.06D-01
 Coeff-Com:  0.100D+01
 Coeff-En:   0.100D+01
 Coeff:      0.100D+01
 Gap=     0.281 Goal=   None    Shift=    0.000
 GapD=    0.281 DampG=1.000 DampE=0.500 DampFc=0.5000 IDamp=-1.
 Damping current iteration by 5.00D-01
 RMSDP=1.80D-02 MaxDP=2.17D+00              OVMax= 2.33D-01

 Cycle   2  Pass 1  IDiag  1:
 RMSU=  4.14D-03    CP:  8.16D-01
 E= -554.637060639933     Delta-E=       -0.117819289976 Rises=F Damp=T
 DIIS: error= 5.48D-03 at cycle   2 NSaved=   2.
 NSaved= 2 IEnMin= 2 EnMin= -554.637060639933     IErMin= 2 ErrMin= 5.48D-03
 ErrMax= 5.48D-03 EMaxC= 1.00D-01 BMatC= 2.84D-02 BMatP= 3.71D-01
 IDIUse=3 WtCom= 9.45D-01 WtEn= 5.48D-02
 Coeff-Com:  0.130D+00 0.870D+00
 Coeff-En:   0.237D+00 0.763D+00
 Coeff:      0.135D+00 0.865D+00
 Gap=     0.236 Goal=   None    Shift=    0.000
 RMSDP=4.92D-03 MaxDP=7.32D-01 DE=-1.18D-01 OVMax= 1.44D-01

 Cycle   3  Pass 1  IDiag  1:
 RMSU=  2.72D-03    CP:  7.47D-01  7.25D-01
 E= -554.823377640247     Delta-E=       -0.186317000314 Rises=F Damp=F
 DIIS: error= 5.64D-03 at cycle   3 NSaved=   3.
 NSaved= 3 IEnMin= 3 EnMin= -554.823377640247     IErMin= 2 ErrMin= 5.48D-03
 ErrMax= 5.64D-03 EMaxC= 1.00D-01 BMatC= 1.38D-02 BMatP= 2.84D-02
 IDIUse=3 WtCom= 9.44D-01 WtEn= 5.64D-02
 Coeff-Com: -0.338D-02 0.397D+00 0.607D+00
 Coeff-En:   0.000D+00 0.000D+00 0.100D+01
 Coeff:     -0.319D-02 0.374D+00 0.629D+00
 Gap=     0.209 Goal=   None    Shift=    0.000
 RMSDP=1.24D-03 MaxDP=1.03D-01 DE=-1.86D-01 OVMax= 2.75D-02

 Cycle   4  Pass 1  IDiag  1:
 RMSU=  8.09D-04    CP:  7.47D-01  8.03D-01  9.71D-01
 E= -554.830801293741     Delta-E=       -0.007423653495 Rises=F Damp=F
 DIIS: error= 3.11D-03 at cycle   4 NSaved=   4.
 NSaved= 4 IEnMin= 4 EnMin= -554.830801293741     IErMin= 4 ErrMin= 3.11D-03
 ErrMax= 3.11D-03 EMaxC= 1.00D-01 BMatC= 4.02D-03 BMatP= 1.38D-02
 IDIUse=3 WtCom= 9.69D-01 WtEn= 3.11D-02
 Coeff-Com: -0.167D-01 0.126D+00 0.389D+00 0.501D+00
 Coeff-En:   0.000D+00 0.000D+00 0.241D+00 0.759D+00
 Coeff:     -0.162D-01 0.122D+00 0.385D+00 0.509D+00
 Gap=     0.204 Goal=   None    Shift=    0.000
 RMSDP=1.17D-03 MaxDP=1.50D-01 DE=-7.42D-03 OVMax= 1.66D-02

 Cycle   5  Pass 1  IDiag  1:
 RMSU=  3.81D-04    CP:  7.23D-01  8.57D-01  9.76D-01  6.72D-01
 E= -554.833669422890     Delta-E=       -0.002868129149 Rises=F Damp=F
 DIIS: error= 1.36D-03 at cycle   5 NSaved=   5.
 NSaved= 5 IEnMin= 5 EnMin= -554.833669422890     IErMin= 5 ErrMin= 1.36D-03
 ErrMax= 1.36D-03 EMaxC= 1.00D-01 BMatC= 6.37D-04 BMatP= 4.02D-03
 IDIUse=3 WtCom= 9.86D-01 WtEn= 1.36D-02
 Coeff-Com: -0.113D-01 0.440D-01 0.196D+00 0.344D+00 0.427D+00
 Coeff-En:   0.000D+00 0.000D+00 0.000D+00 0.990D-01 0.901D+00
 Coeff:     -0.111D-01 0.434D-01 0.194D+00 0.340D+00 0.434D+00
 Gap=     0.206 Goal=   None    Shift=    0.000
 RMSDP=1.97D-04 MaxDP=9.31D-03 DE=-2.87D-03 OVMax= 8.07D-03

 Cycle   6  Pass 1  IDiag  1:
 RMSU=  1.17D-04    CP:  7.22D-01  8.53D-01  9.79D-01  6.53D-01  8.16D-01
 E= -554.834174182508     Delta-E=       -0.000504759618 Rises=F Damp=F
 DIIS: error= 2.27D-04 at cycle   6 NSaved=   6.
 NSaved= 6 IEnMin= 6 EnMin= -554.834174182508     IErMin= 6 ErrMin= 2.27D-04
 ErrMax= 2.27D-04 EMaxC= 1.00D-01 BMatC= 2.79D-05 BMatP= 6.37D-04
 IDIUse=3 WtCom= 9.98D-01 WtEn= 2.27D-03
 Coeff-Com: -0.344D-02 0.576D-02 0.473D-01 0.105D+00 0.223D+00 0.622D+00
 Coeff-En:   0.000D+00 0.000D+00 0.000D+00 0.000D+00 0.000D+00 0.100D+01
 Coeff:     -0.343D-02 0.575D-02 0.472D-01 0.105D+00 0.222D+00 0.623D+00
 Gap=     0.206 Goal=   None    Shift=    0.000
 RMSDP=1.27D-04 MaxDP=8.33D-03 DE=-5.05D-04 OVMax= 1.53D-03

 Cycle   7  Pass 1  IDiag  1:
 RMSU=  4.65D-05    CP:  7.23D-01  8.49D-01  9.93D-01  6.86D-01  7.98D-01
                    CP:  5.83D-01
 E= -554.834198326045     Delta-E=       -0.000024143538 Rises=F Damp=F
 DIIS: error= 3.08D-05 at cycle   7 NSaved=   7.
 NSaved= 7 IEnMin= 7 EnMin= -554.834198326045     IErMin= 7 ErrMin= 3.08D-05
 ErrMax= 3.08D-05 EMaxC= 1.00D-01 BMatC= 4.49D-07 BMatP= 2.79D-05
 IDIUse=1 WtCom= 1.00D+00 WtEn= 0.00D+00
 Coeff-Com: -0.676D-03 0.475D-03 0.973D-02 0.249D-01 0.570D-01 0.204D+00
 Coeff-Com:  0.705D+00
 Coeff:     -0.676D-03 0.475D-03 0.973D-02 0.249D-01 0.570D-01 0.204D+00
 Coeff:      0.705D+00
 Gap=     0.206 Goal=   None    Shift=    0.000
 RMSDP=1.29D-05 MaxDP=7.76D-04 DE=-2.41D-05 OVMax= 2.63D-04

 Cycle   8  Pass 1  IDiag  1:
 RMSU=  6.36D-06    CP:  7.23D-01  8.50D-01  9.93D-01  6.85D-01  8.02D-01
                    CP:  6.21D-01  1.00D+00
 E= -554.834198559600     Delta-E=       -0.000000233554 Rises=F Damp=F
 DIIS: error= 3.15D-05 at cycle   8 NSaved=   8.
 NSaved= 8 IEnMin= 8 EnMin= -554.834198559600     IErMin= 7 ErrMin= 3.08D-05
 ErrMax= 3.15D-05 EMaxC= 1.00D-01 BMatC= 2.07D-07 BMatP= 4.49D-07
 IDIUse=1 WtCom= 1.00D+00 WtEn= 0.00D+00
 Coeff-Com:  0.582D-04-0.529D-03-0.251D-03 0.169D-02 0.561D-02 0.464D-01
 Coeff-Com:  0.433D+00 0.514D+00
 Coeff:      0.582D-04-0.529D-03-0.251D-03 0.169D-02 0.561D-02 0.464D-01
 Coeff:      0.433D+00 0.514D+00
 Gap=     0.206 Goal=   None    Shift=    0.000
 RMSDP=6.19D-06 MaxDP=3.90D-04 DE=-2.34D-07 OVMax= 1.70D-04

 Cycle   9  Pass 1  IDiag  1:
 RMSU=  2.86D-06    CP:  7.23D-01  8.50D-01  9.94D-01  6.89D-01  8.04D-01
                    CP:  6.27D-01  1.02D+00  1.01D+00
 E= -554.834198752370     Delta-E=       -0.000000192770 Rises=F Damp=F
 DIIS: error= 6.66D-06 at cycle   9 NSaved=   9.
 NSaved= 9 IEnMin= 9 EnMin= -554.834198752370     IErMin= 9 ErrMin= 6.66D-06
 ErrMax= 6.66D-06 EMaxC= 1.00D-01 BMatC= 7.94D-09 BMatP= 2.07D-07
 IDIUse=1 WtCom= 1.00D+00 WtEn= 0.00D+00
 Coeff-Com:  0.815D-04-0.261D-03-0.878D-03-0.129D-02-0.261D-02 0.244D-02
 Coeff-Com:  0.120D+00 0.222D+00 0.660D+00
 Coeff:      0.815D-04-0.261D-03-0.878D-03-0.129D-02-0.261D-02 0.244D-02
 Coeff:      0.120D+00 0.222D+00 0.660D+00
 Gap=     0.206 Goal=   None    Shift=    0.000
 RMSDP=2.40D-06 MaxDP=1.57D-04 DE=-1.93D-07 OVMax= 3.76D-05

 Cycle  10  Pass 1  IDiag  1:
 RMSU=  6.07D-07    CP:  7.23D-01  8.50D-01  9.94D-01  6.89D-01  8.05D-01
                    CP:  6.24D-01  1.05D+00  1.03D+00  8.71D-01
 E= -554.834198759623     Delta-E=       -0.000000007253 Rises=F Damp=F
 DIIS: error= 2.79D-06 at cycle  10 NSaved=  10.
 NSaved=10 IEnMin=10 EnMin= -554.834198759623     IErMin=10 ErrMin= 2.79D-06
 ErrMax= 2.79D-06 EMaxC= 1.00D-01 BMatC= 1.30D-09 BMatP= 7.94D-09
 IDIUse=1 WtCom= 1.00D+00 WtEn= 0.00D+00
 Coeff-Com:  0.347D-04-0.785D-04-0.425D-03-0.798D-03-0.188D-02-0.284D-02
 Coeff-Com:  0.213D-01 0.644D-01 0.340D+00 0.581D+00
 Coeff:      0.347D-04-0.785D-04-0.425D-03-0.798D-03-0.188D-02-0.284D-02
 Coeff:      0.213D-01 0.644D-01 0.340D+00 0.581D+00
 Gap=     0.206 Goal=   None    Shift=    0.000
 RMSDP=5.41D-07 MaxDP=5.58D-05 DE=-7.25D-09 OVMax= 1.64D-05

 Cycle  11  Pass 1  IDiag  1:
 RMSU=  2.16D-07    CP:  7.23D-01  8.50D-01  9.94D-01  6.89D-01  8.05D-01
                    CP:  6.25D-01  1.05D+00  1.04D+00  9.25D-01  9.40D-01
 E= -554.834198760889     Delta-E=       -0.000000001266 Rises=F Damp=F
 DIIS: error= 6.01D-07 at cycle  11 NSaved=  11.
 NSaved=11 IEnMin=11 EnMin= -554.834198760889     IErMin=11 ErrMin= 6.01D-07
 ErrMax= 6.01D-07 EMaxC= 1.00D-01 BMatC= 1.28D-10 BMatP= 1.30D-09
 IDIUse=1 WtCom= 1.00D+00 WtEn= 0.00D+00
 Coeff-Com:  0.624D-05-0.889D-05-0.108D-03-0.231D-03-0.607D-03-0.153D-02
 Coeff-Com: -0.336D-02 0.415D-02 0.791D-01 0.282D+00 0.641D+00
 Coeff:      0.624D-05-0.889D-05-0.108D-03-0.231D-03-0.607D-03-0.153D-02
 Coeff:     -0.336D-02 0.415D-02 0.791D-01 0.282D+00 0.641D+00
 Gap=     0.206 Goal=   None    Shift=    0.000
 RMSDP=1.80D-07 MaxDP=5.89D-06 DE=-1.27D-09 OVMax= 3.86D-06

 Cycle  12  Pass 1  IDiag  1:
 RMSU=  5.03D-08    CP:  7.23D-01  8.50D-01  9.94D-01  6.89D-01  8.05D-01
                    CP:  6.25D-01  1.05D+00  1.05D+00  9.30D-01  9.68D-01
                    CP:  9.00D-01
 E= -554.834198761030     Delta-E=       -0.000000000141 Rises=F Damp=F
 DIIS: error= 1.77D-07 at cycle  12 NSaved=  12.
 NSaved=12 IEnMin=12 EnMin= -554.834198761030     IErMin=12 ErrMin= 1.77D-07
 ErrMax= 1.77D-07 EMaxC= 1.00D-01 BMatC= 2.05D-11 BMatP= 1.28D-10
 IDIUse=1 WtCom= 1.00D+00 WtEn= 0.00D+00
 Coeff-Com: -0.508D-06 0.427D-05-0.143D-04-0.418D-04-0.152D-03-0.549D-03
 Coeff-Com: -0.418D-02-0.525D-02 0.315D-02 0.938D-01 0.357D+00 0.556D+00
 Coeff:     -0.508D-06 0.427D-05-0.143D-04-0.418D-04-0.152D-03-0.549D-03
 Coeff:     -0.418D-02-0.525D-02 0.315D-02 0.938D-01 0.357D+00 0.556D+00
 Gap=     0.206 Goal=   None    Shift=    0.000
 RMSDP=5.77D-08 MaxDP=2.74D-06 DE=-1.41D-10 OVMax= 1.16D-06

 Cycle  13  Pass 1  IDiag  1:
 RMSU=  2.10D-08    CP:  7.23D-01  8.50D-01  9.94D-01  6.89D-01  8.05D-01
                    CP:  6.25D-01  1.05D+00  1.06D+00  9.34D-01  9.72D-01
                    CP:  8.92D-01  8.76D-01
 E= -554.834198761053     Delta-E=       -0.000000000022 Rises=F Damp=F
 DIIS: error= 4.19D-08 at cycle  13 NSaved=  13.
 NSaved=13 IEnMin=13 EnMin= -554.834198761053     IErMin=13 ErrMin= 4.19D-08
 ErrMax= 4.19D-08 EMaxC= 1.00D-01 BMatC= 9.83D-13 BMatP= 2.05D-11
 IDIUse=1 WtCom= 1.00D+00 WtEn= 0.00D+00
 Coeff-Com: -0.653D-06 0.211D-05 0.392D-05 0.603D-05-0.112D-04-0.521D-04
 Coeff-Com: -0.111D-02-0.214D-02-0.525D-02 0.140D-01 0.864D-01 0.224D+00
 Coeff-Com:  0.684D+00
 Coeff:     -0.653D-06 0.211D-05 0.392D-05 0.603D-05-0.112D-04-0.521D-04
 Coeff:     -0.111D-02-0.214D-02-0.525D-02 0.140D-01 0.864D-01 0.224D+00
 Coeff:      0.684D+00
 Gap=     0.206 Goal=   None    Shift=    0.000
 RMSDP=1.52D-08 MaxDP=6.92D-07 DE=-2.21D-11 OVMax= 3.91D-07

 Cycle  14  Pass 1  IDiag  1:
 RMSU=  5.66D-09    CP:  7.23D-01  8.50D-01  9.94D-01  6.89D-01  8.05D-01
                    CP:  6.25D-01  1.05D+00  1.06D+00  9.35D-01  9.79D-01
                    CP:  9.05D-01  9.05D-01  9.03D-01
 E= -554.834198761052     Delta-E=        0.000000000000 Rises=F Damp=F
 DIIS: error= 2.13D-08 at cycle  14 NSaved=  14.
 NSaved=14 IEnMin=13 EnMin= -554.834198761053     IErMin=14 ErrMin= 2.13D-08
 ErrMax= 2.13D-08 EMaxC= 1.00D-01 BMatC= 2.50D-13 BMatP= 9.83D-13
 IDIUse=1 WtCom= 1.00D+00 WtEn= 0.00D+00
 Coeff-Com: -0.285D-06 0.833D-06 0.308D-05 0.584D-05 0.296D-05 0.341D-05
 Coeff-Com: -0.370D-03-0.907D-03-0.397D-02-0.180D-02 0.149D-01 0.724D-01
 Coeff-Com:  0.402D+00 0.517D+00
 Coeff:     -0.285D-06 0.833D-06 0.308D-05 0.584D-05 0.296D-05 0.341D-05
 Coeff:     -0.370D-03-0.907D-03-0.397D-02-0.180D-02 0.149D-01 0.724D-01
 Coeff:      0.402D+00 0.517D+00
 Gap=     0.206 Goal=   None    Shift=    0.000
 RMSDP=7.20D-09 MaxDP=8.71D-07 DE= 2.27D-13 OVMax= 1.18D-07

 Error on total polarization charges =  0.01718
 SCF Done:  E(RB3LYP) =  -554.834198761     A.U. after   14 cycles
             Convg  =    0.7196D-08             -V/T =  2.0043
 KE= 5.524403236193D+02 PE=-2.655137451582D+03 EE= 8.674768182623D+02
 Leave Link  502 at Sat Apr 16 01:37:18 2016, MaxMem=   33554432 cpu:    1500.0
 (Enter c:\G09w01\l801.exe)
 Range of M.O.s used for correlation:     1   340
 NBasis=   341 NAE=    44 NBE=    44 NFC=     0 NFV=     0
 NROrb=    340 NOA=    44 NOB=    44 NVA=   296 NVB=   296

 **** Warning!!: The largest alpha MO coefficient is  0.12873268D+03

 Leave Link  801 at Sat Apr 16 01:37:18 2016, MaxMem=   33554432 cpu:       0.0
 (Enter c:\G09w01\l1101.exe)
 Using compressed storage, NAtomX=    23.
 Will process  24 centers per pass.
 Leave Link 1101 at Sat Apr 16 01:37:20 2016, MaxMem=   33554432 cpu:       2.0
 (Enter c:\G09w01\l1102.exe)
 Symmetrizing basis deriv contribution to polar:
 IMax=3 JMax=2 DiffMx= 0.00D+00
 Leave Link 1102 at Sat Apr 16 01:37:20 2016, MaxMem=   33554432 cpu:       0.0
 (Enter c:\G09w01\l1110.exe)
 Forming Gx(P) for the SCF density, NAtomX=    23.
 Integral derivatives from FoFDir/FoFCou, PRISM(SPDF).
 Do as many integral derivatives as possible in FoFDir.
 G2DrvN: MDV=      33554240.
 G2DrvN: will do    24 centers at a time, making    1 passes doing MaxLOS=2.
 Calling FoFCou, ICntrl=  3107 FMM=F I1Cent=   0 AccDes= 0.00D+00.
 FoFCou: FMM=F IPFlag=           0 FMFlag=      100000 FMFlg1=           0
         NFxFlg=           0 DoJE=F BraDBF=F KetDBF=F FulRan=T
         Omega=  0.000000  0.000000  1.000000  0.000000  0.000000 ICntrl=    3107 IOpCl=  0
         NMat0=    1 NMatS0=    1 NMatT0=    0 NMatD0=    1 NMtDS0=    0 NMtDT0=    0
         I1Cent=           0 NGrid=           0.
 Symmetry not used in FoFCou.
 FoFDir/FoFCou used for L=0 through L=2.
 G2PCM: DoFxE=T DoFxN=T DoGrad=T DoPD/DQ/DG=FFF NFrqRd=   0 IEInf=0 DoCFld=F IF1Alg=4.
 GePol: Maximum number of non-zero 1st derivatives   =     200
 End of G2Drv Frequency-dependent properties file   721 does not exist.
 End of G2Drv Frequency-dependent properties file   722 does not exist.
 Leave Link 1110 at Sat Apr 16 02:08:44 2016, MaxMem=   33554432 cpu:    1883.0
 (Enter c:\G09w01\l1002.exe)
 Minotr:  Closed shell wavefunction.
          IDoAtm=11111111111111111111111
 NEqPCM:  Using equilibrium solvation (IEInf=0, Eps=  78.3553, EpsInf=   1.7778)
          Direct CPHF calculation.
          Differentiating once with respect to nuclear coordinates.
          Requested convergence is 1.0D-06 RMS, and 1.0D-05 maximum.
          Secondary convergence is 1.0D-12 RMS, and 1.0D-12 maximum.
          NewPWx=T KeepS1=F KeepF1=F KeepIn=T MapXYZ=F SortEE=F KeepMc=T.
          MDV=      33554266 using IRadAn=       2.
 Generate precomputed XC quadrature information.
          Solving linear equations simultaneously, MaxMat=       0.
 Symmetry not used in FoFDir.
 MinBra= 0 MaxBra= 2 Meth= 1.
 IRaf=       0 NMat=  72 IRICut=     180 DoRegI=T DoRafI=T ISym2E= 0 JSym2E=0.
          There are    72 degrees of freedom in the 1st order CPHF.  IDoFFX=5.
     66 vectors produced by pass  0 Test12= 1.81D-10 1.39D-07 XBig12= 2.85D-01 1.27D-01.
 AX will form    66 AO Fock derivatives at one time.
     66 vectors produced by pass  1 Test12= 1.81D-10 1.39D-07 XBig12= 1.32D-01 1.19D-01.
     66 vectors produced by pass  2 Test12= 1.81D-10 1.39D-07 XBig12= 2.83D-04 2.35D-03.
     66 vectors produced by pass  3 Test12= 1.81D-10 1.39D-07 XBig12= 8.92D-07 1.35D-04.
     48 vectors produced by pass  4 Test12= 1.81D-10 1.39D-07 XBig12= 2.36D-09 5.06D-06.
      3 vectors produced by pass  5 Test12= 1.81D-10 1.39D-07 XBig12= 5.22D-12 3.35D-07.
 Inverted reduced A of dimension   315 with in-core refinement.
 End of Minotr Frequency-dependent properties file   721 does not exist.
 End of Minotr Frequency-dependent properties file   722 does not exist.
 Leave Link 1002 at Sat Apr 16 03:10:24 2016, MaxMem=   33554432 cpu:    3700.0
 (Enter c:\G09w01\l601.exe)
 Copying SCF densities to generalized density rwf, IOpCl= 0 IROHF=0.

 **********************************************************************

            Population analysis using the SCF density.

 **********************************************************************

 Alpha  occ. eigenvalues --  -19.19143 -19.15644 -14.31400 -10.33034 -10.23651
 Alpha  occ. eigenvalues --  -10.19218 -10.19185 -10.18119 -10.18111 -10.18022
 Alpha  occ. eigenvalues --  -10.17980 -10.17967  -1.14250  -1.05955  -0.90484
 Alpha  occ. eigenvalues --   -0.86725  -0.79151  -0.75411  -0.73168  -0.68366
 Alpha  occ. eigenvalues --   -0.61613  -0.61112  -0.59372  -0.53605  -0.52301
 Alpha  occ. eigenvalues --   -0.50770  -0.50006  -0.48546  -0.47188  -0.46024
 Alpha  occ. eigenvalues --   -0.43832  -0.42857  -0.41418  -0.40730  -0.40531
 Alpha  occ. eigenvalues --   -0.37234  -0.36406  -0.35148  -0.34948  -0.33935
 Alpha  occ. eigenvalues --   -0.27596  -0.26482  -0.25929  -0.24431
 Alpha virt. eigenvalues --   -0.03864  -0.03082  -0.02257  -0.01838  -0.00766
 Alpha virt. eigenvalues --    0.00126   0.00854   0.02065   0.02229   0.03582
 Alpha virt. eigenvalues --    0.03921   0.04631   0.04997   0.05323   0.06144
 Alpha virt. eigenvalues --    0.06746   0.07858   0.08295   0.08536   0.09040
 Alpha virt. eigenvalues --    0.09580   0.10498   0.11034   0.11231   0.11556
 Alpha virt. eigenvalues --    0.11727   0.11998   0.12377   0.12892   0.13133
 Alpha virt. eigenvalues --    0.13360   0.13639   0.13930   0.14807   0.15231
 Alpha virt. eigenvalues --    0.15955   0.16081   0.16583   0.16847   0.17931
 Alpha virt. eigenvalues --    0.17987   0.18402   0.18722   0.19116   0.19525
 Alpha virt. eigenvalues --    0.20050   0.20691   0.21207   0.21658   0.22638
 Alpha virt. eigenvalues --    0.23115   0.23668   0.24172   0.24935   0.25320
 Alpha virt. eigenvalues --    0.25453   0.26051   0.26621   0.27085   0.27876
 Alpha virt. eigenvalues --    0.28208   0.28639   0.28744   0.29252   0.29463
 Alpha virt. eigenvalues --    0.30340   0.30829   0.31118   0.31927   0.32332
 Alpha virt. eigenvalues --    0.32958   0.34394   0.34860   0.35515   0.36112
 Alpha virt. eigenvalues --    0.36380   0.37265   0.38144   0.38306   0.39057
 Alpha virt. eigenvalues --    0.40417   0.42427   0.47099   0.49054   0.50089
 Alpha virt. eigenvalues --    0.51964   0.53312   0.54027   0.54599   0.55543
 Alpha virt. eigenvalues --    0.55869   0.56165   0.56499   0.57440   0.58068
 Alpha virt. eigenvalues --    0.58874   0.59508   0.59922   0.61052   0.62039
 Alpha virt. eigenvalues --    0.62740   0.64943   0.67140   0.67672   0.69168
 Alpha virt. eigenvalues --    0.70507   0.70841   0.71382   0.72112   0.72391
 Alpha virt. eigenvalues --    0.73711   0.74783   0.74876   0.75494   0.76822
 Alpha virt. eigenvalues --    0.77934   0.80421   0.83141   0.84211   0.85000
 Alpha virt. eigenvalues --    0.85226   0.87308   0.87570   0.88403   0.89857
 Alpha virt. eigenvalues --    0.90027   0.91862   0.92933   0.94943   0.96925
 Alpha virt. eigenvalues --    1.00083   1.00867   1.01863   1.02334   1.04805
 Alpha virt. eigenvalues --    1.06787   1.08462   1.09596   1.10082   1.13660
 Alpha virt. eigenvalues --    1.14340   1.16499   1.16980   1.18504   1.19943
 Alpha virt. eigenvalues --    1.21519   1.22340   1.26835   1.27514   1.30568
 Alpha virt. eigenvalues --    1.31598   1.35497   1.40498   1.43076   1.43947
 Alpha virt. eigenvalues --    1.47817   1.49006   1.50560   1.51649   1.52836
 Alpha virt. eigenvalues --    1.53863   1.54333   1.56366   1.56685   1.58462
 Alpha virt. eigenvalues --    1.60156   1.60569   1.61777   1.62758   1.64283
 Alpha virt. eigenvalues --    1.65194   1.67888   1.69513   1.70418   1.71862
 Alpha virt. eigenvalues --    1.72457   1.73744   1.74771   1.75961   1.77997
 Alpha virt. eigenvalues --    1.80158   1.82302   1.84371   1.85439   1.87076
 Alpha virt. eigenvalues --    1.88836   1.91946   1.92430   1.93034   1.94115
 Alpha virt. eigenvalues --    1.95239   1.95831   1.97362   2.00121   2.01728
 Alpha virt. eigenvalues --    2.02395   2.03301   2.07995   2.09276   2.10077
 Alpha virt. eigenvalues --    2.13631   2.15330   2.20846   2.22417   2.25497
 Alpha virt. eigenvalues --    2.25964   2.30794   2.33606   2.39943   2.41014
 Alpha virt. eigenvalues --    2.43679   2.45664   2.46586   2.53484   2.54878
 Alpha virt. eigenvalues --    2.56686   2.57579   2.60540   2.60712   2.63757
 Alpha virt. eigenvalues --    2.65412   2.66576   2.67429   2.70443   2.70632
 Alpha virt. eigenvalues --    2.70799   2.73544   2.74136   2.74563   2.76657
 Alpha virt. eigenvalues --    2.79320   2.80575   2.81230   2.83516   2.85810
 Alpha virt. eigenvalues --    2.87568   2.87896   2.89925   2.92693   2.94589
 Alpha virt. eigenvalues --    2.94926   2.97069   2.98032   3.02099   3.04145
 Alpha virt. eigenvalues --    3.06525   3.09043   3.11226   3.14713   3.17331
 Alpha virt. eigenvalues --    3.18695   3.19509   3.24428   3.29247   3.34698
 Alpha virt. eigenvalues --    3.35769   3.36267   3.38289   3.49425   3.54650
 Alpha virt. eigenvalues --    3.57405   3.61148   3.62413   3.71153   3.78998
 Alpha virt. eigenvalues --    3.85382   3.87254   3.99880   4.04034   4.05884
 Alpha virt. eigenvalues --    4.09976   4.15279   4.15494   4.22016   4.34613
 Alpha virt. eigenvalues --    4.72387   4.81899   4.84116   5.00860   5.06353
 Alpha virt. eigenvalues --    5.14487   5.39638   5.58917   5.84724  23.61879
 Alpha virt. eigenvalues --   23.70206  23.79757  23.90564  23.96727  23.97602
 Alpha virt. eigenvalues --   24.07870  24.09210  24.18598  35.60412  49.87592
 Alpha virt. eigenvalues --   49.98359
          Condensed to atoms (all electrons):
              1          2          3          4          5          6
     1  N    6.712995   0.366173  -0.485359   0.006480  -0.021441   0.169988
     2  H    0.366173   0.466329  -0.007637   0.015009  -0.040993  -0.041515
     3  C   -0.485359  -0.007637  12.375692   0.141448  -0.947674  -2.427415
     4  H    0.006480   0.015009   0.141448   0.696378   0.037755  -0.028422
     5  C   -0.021441  -0.040993  -0.947674   0.037755   9.343435   0.003263
     6  C    0.169988  -0.041515  -2.427415  -0.028422   0.003263   6.989815
     7  H   -0.006550  -0.004334  -0.042548  -0.008278   0.404032   0.013918
     8  H    0.001920   0.008690  -0.089926   0.015180   0.478564  -0.078194
     9  C    0.128592   0.016821  -1.800604   0.044848  -1.581292   0.413749
    10  O   -0.028661   0.014447  -0.227185   0.045091  -0.078200   0.343530
    11  C    0.064279   0.005897   0.055827  -0.029722  -0.612999   0.356548
    12  C   -0.086234  -0.001221   0.316112   0.017121  -0.499068  -0.330281
    13  H   -0.005636   0.001225   0.044932  -0.001483   0.003354  -0.031005
    14  C   -0.004056  -0.000344   0.195462  -0.001439  -0.082161  -0.017495
    15  C   -0.005257  -0.000056   0.051699  -0.013407  -0.182283   0.018503
    16  H   -0.003004  -0.000125   0.034304   0.000907  -0.014420  -0.006834
    17  H    0.000121  -0.000077  -0.002227   0.000080   0.001259  -0.000166
    18  C    0.002754   0.000526   0.012735   0.002715   0.091592   0.053223
    19  H    0.000052  -0.000010  -0.004101  -0.000162   0.002493  -0.001016
    20  H    0.000042   0.000007  -0.000720   0.000090  -0.003714   0.000821
    21  H    0.421795  -0.044593  -0.192109  -0.004258   0.040762   0.067948
    22  O    0.008499  -0.006573  -0.232792  -0.080010   0.006870   0.584015
    23  H    0.013990  -0.001154  -0.132429  -0.003188   0.022137   0.097115
              7          8          9         10         11         12
     1  N   -0.006550   0.001920   0.128592  -0.028661   0.064279  -0.086234
     2  H   -0.004334   0.008690   0.016821   0.014447   0.005897  -0.001221
     3  C   -0.042548  -0.089926  -1.800604  -0.227185   0.055827   0.316112
     4  H   -0.008278   0.015180   0.044848   0.045091  -0.029722   0.017121
     5  C    0.404032   0.478564  -1.581292  -0.078200  -0.612999  -0.499068
     6  C    0.013918  -0.078194   0.413749   0.343530   0.356548  -0.330281
     7  H    0.528300  -0.051489  -0.074103  -0.003035   0.030706  -0.017301
     8  H   -0.051489   0.578235  -0.038716   0.010055  -0.003231  -0.008360
     9  C   -0.074103  -0.038716   9.763200   0.062140  -0.835772   0.146383
    10  O   -0.003035   0.010055   0.062140   7.888062   0.021055  -0.003013
    11  C    0.030706  -0.003231  -0.835772   0.021055   9.588625  -3.221077
    12  C   -0.017301  -0.008360   0.146383  -0.003013  -3.221077   9.644024
    13  H    0.006423  -0.013018  -0.062009  -0.000986   0.405166   0.001988
    14  C   -0.012351   0.030111  -0.783168  -0.004868   0.538851   0.191165
    15  C    0.026176  -0.046815  -0.436324  -0.001287   0.694340  -0.099811
    16  H   -0.003720   0.003936  -0.019852   0.000299  -0.008998   0.417066
    17  H   -0.000161   0.002090   0.013672  -0.000140  -0.055323   0.004787
    18  C   -0.006924  -0.006313   0.005896   0.000946  -0.506522  -0.255635
    19  H    0.000622   0.000157   0.014682   0.000004   0.018744  -0.075034
    20  H   -0.000069  -0.000259   0.030613  -0.000017  -0.015223   0.003393
    21  H    0.000832   0.002158   0.004539   0.000075  -0.003625   0.000426
    22  O    0.003140  -0.011359  -0.013711  -0.146914  -0.007915  -0.033871
    23  H   -0.000689  -0.000697  -0.003852   0.253807   0.018061  -0.009089
             13         14         15         16         17         18
     1  N   -0.005636  -0.004056  -0.005257  -0.003004   0.000121   0.002754
     2  H    0.001225  -0.000344  -0.000056  -0.000125  -0.000077   0.000526
     3  C    0.044932   0.195462   0.051699   0.034304  -0.002227   0.012735
     4  H   -0.001483  -0.001439  -0.013407   0.000907   0.000080   0.002715
     5  C    0.003354  -0.082161  -0.182283  -0.014420   0.001259   0.091592
     6  C   -0.031005  -0.017495   0.018503  -0.006834  -0.000166   0.053223
     7  H    0.006423  -0.012351   0.026176  -0.003720  -0.000161  -0.006924
     8  H   -0.013018   0.030111  -0.046815   0.003936   0.002090  -0.006313
     9  C   -0.062009  -0.783168  -0.436324  -0.019852   0.013672   0.005896
    10  O   -0.000986  -0.004868  -0.001287   0.000299  -0.000140   0.000946
    11  C    0.405166   0.538851   0.694340  -0.008998  -0.055323  -0.506522
    12  C    0.001988   0.191165  -0.099811   0.417066   0.004787  -0.255635
    13  H    0.519234  -0.063517   0.025030  -0.002623  -0.015357   0.008016
    14  C   -0.063517   5.695642  -0.069498   0.010113   0.413538   0.416483
    15  C    0.025030  -0.069498   5.733551  -0.085706   0.004229   0.345627
    16  H   -0.002623   0.010113  -0.085706   0.503986   0.000687   0.005857
    17  H   -0.015357   0.413538   0.004229   0.000687   0.502774  -0.061044
    18  C    0.008016   0.416483   0.345627   0.005857  -0.061044   5.840289
    19  H    0.000768   0.007407   0.421945  -0.012890   0.000095  -0.067509
    20  H    0.000320  -0.073245  -0.078352   0.000163  -0.013343   0.473418
    21  H   -0.000935   0.000437  -0.001067  -0.000261   0.000032   0.000266
    22  O    0.000359   0.006311  -0.004106  -0.000347  -0.000417   0.009333
    23  H   -0.004112  -0.001420   0.000088   0.000095   0.000349  -0.000841
             19         20         21         22         23
     1  N    0.000052   0.000042   0.421795   0.008499   0.013990
     2  H   -0.000010   0.000007  -0.044593  -0.006573  -0.001154
     3  C   -0.004101  -0.000720  -0.192109  -0.232792  -0.132429
     4  H   -0.000162   0.000090  -0.004258  -0.080010  -0.003188
     5  C    0.002493  -0.003714   0.040762   0.006870   0.022137
     6  C   -0.001016   0.000821   0.067948   0.584015   0.097115
     7  H    0.000622  -0.000069   0.000832   0.003140  -0.000689
     8  H    0.000157  -0.000259   0.002158  -0.011359  -0.000697
     9  C    0.014682   0.030613   0.004539  -0.013711  -0.003852
    10  O    0.000004  -0.000017   0.000075  -0.146914   0.253807
    11  C    0.018744  -0.015223  -0.003625  -0.007915   0.018061
    12  C   -0.075034   0.003393   0.000426  -0.033871  -0.009089
    13  H    0.000768   0.000320  -0.000935   0.000359  -0.004112
    14  C    0.007407  -0.073245   0.000437   0.006311  -0.001420
    15  C    0.421945  -0.078352  -0.001067  -0.004106   0.000088
    16  H   -0.012890   0.000163  -0.000261  -0.000347   0.000095
    17  H    0.000095  -0.013343   0.000032  -0.000417   0.000349
    18  C   -0.067509   0.473418   0.000266   0.009333  -0.000841
    19  H    0.503820  -0.013071  -0.000012  -0.000563   0.000004
    20  H   -0.013071   0.513821   0.000002   0.000187  -0.000025
    21  H   -0.000012   0.000002   0.426239  -0.000117   0.001924
    22  O   -0.000563   0.000187  -0.000117   8.120652  -0.012991
    23  H    0.000004  -0.000025   0.001924  -0.012991   0.435259
 Mulliken atomic charges:
              1
     1  N   -0.251483
     2  H    0.253507
     3  C   -0.635485
     4  H    0.147269
     5  C   -0.371271
     6  C   -0.150092
     7  H    0.217402
     8  H    0.217279
     9  C    1.004268
    10  O   -0.145204
    11  C   -0.497690
    12  C   -0.102467
    13  H    0.183868
    14  C   -0.391961
    15  C   -0.297220
    16  H    0.181367
    17  H    0.204542
    18  C   -0.364887
    19  H    0.203576
    20  H    0.175162
    21  H    0.279542
    22  O   -0.187680
    23  H    0.327657
 Sum of Mulliken atomic charges =   0.00000
 Mulliken charges with hydrogens summed into heavy atoms:
              1
     1  N    0.281566
     3  C   -0.635485
     5  C    0.063409
     6  C   -0.150092
     9  C    1.004268
    10  O    0.182453
    11  C   -0.313821
    12  C    0.078900
    14  C   -0.187418
    15  C   -0.093643
    18  C   -0.189725
    22  O   -0.040411
 Sum of Mulliken charges with hydrogens summed into heavy atoms =   0.00000
 APT atomic charges:
              1
     1  N   -1.122140
     2  H    0.493963
     3  C   -0.924716
     4  H    0.241789
     5  C   -0.699100
     6  C    0.073576
     7  H    0.497770
     8  H    0.382101
     9  C   -0.268088
    10  O   -0.521163
    11  C   -0.356412
    12  C   -0.268259
    13  H    0.368514
    14  C   -0.547987
    15  C   -0.409269
    16  H    0.392859
    17  H    0.673668
    18  C   -0.950370
    19  H    0.713047
    20  H    0.837612
    21  H    0.731995
    22  O   -0.116874
    23  H    0.777486
 Sum of APT charges=   0.00000
 APT Atomic charges with hydrogens summed into heavy atoms:
              1
     1  N    0.103817
     2  H    0.000000
     3  C   -0.924716
     4  H    0.000000
     5  C    0.180771
     6  C    0.073576
     7  H    0.000000
     8  H    0.000000
     9  C   -0.268088
    10  O    0.256323
    11  C    0.012102
    12  C    0.124599
    13  H    0.000000
    14  C    0.125681
    15  C    0.303777
    16  H    0.000000
    17  H    0.000000
    18  C   -0.112758
    19  H    0.000000
    20  H    0.000000
    21  H    0.000000
    22  O    0.124915
    23  H    0.000000
 Sum of APT charges=   0.00000
 Electronic spatial extent (au):  <R**2>=           2242.9095
 Charge=              0.0000 electrons
 Dipole moment (field-independent basis, Debye):
    X=             -1.3481    Y=              2.3931    Z=             -1.7517  Tot=              3.2578
 Quadrupole moment (field-independent basis, Debye-Ang):
   XX=            -61.0490   YY=            -70.0531   ZZ=            -75.2996
   XY=             -5.2285   XZ=              2.9598   YZ=             -5.8647
 Traceless Quadrupole moment (field-independent basis, Debye-Ang):
   XX=              7.7516   YY=             -1.2525   ZZ=             -6.4990
   XY=             -5.2285   XZ=              2.9598   YZ=             -5.8647
 Octapole moment (field-independent basis, Debye-Ang**2):
  XXX=            -42.7272  YYY=             39.3324  ZZZ=             17.7561  XYY=             -2.3929
  XXY=             26.4385  XXZ=             23.9751  XZZ=             -8.6787  YZZ=             -1.8772
  YYZ=              4.7050  XYZ=             -1.9282
 Hexadecapole moment (field-independent basis, Debye-Ang**3):
 XXXX=          -1850.2555 YYYY=           -527.2141 ZZZZ=           -390.6057 XXXY=            -10.4554
 XXXZ=             37.3756 YYYX=            -94.1582 YYYZ=            -29.1245 ZZZX=             27.9330
 ZZZY=            -11.8555 XXYY=           -434.1810 XXZZ=           -410.8140 YYZZ=           -164.1820
 XXYZ=            -35.9627 YYXZ=              1.7721 ZZXY=              4.0899
 N-N= 6.803861109398D+02 E-N=-2.655137455611D+03  KE= 5.524403236193D+02
  Exact polarizability:   0.000   0.000   0.000   0.000   0.000   0.000
 Approx polarizability: 192.017  18.068 194.162  23.421 -11.035 198.415
 No NMR shielding tensors so no spin-rotation constants.
 Leave Link  601 at Sat Apr 16 03:10:25 2016, MaxMem=   33554432 cpu:       1.0
 (Enter c:\G09w01\l701.exe)
 Compute integral second derivatives.
 ... and contract with generalized density number  0.
 D2PCM: C-PCM CHGder 2nd derivatives, FixD1E=F FixD2E=F DoIter=F DoCFld=F I1PDM=0
 GePol: Maximum number of non-zero 2nd derivatives   =     200
 Leave Link  701 at Sat Apr 16 03:12:07 2016, MaxMem=   33554432 cpu:     102.0
 (Enter c:\G09w01\l702.exe)
 L702 exits ... SP integral derivatives will be done elsewhere.
 Leave Link  702 at Sat Apr 16 03:12:08 2016, MaxMem=   33554432 cpu:       0.0
 (Enter c:\G09w01\l703.exe)
 Compute integral second derivatives, UseDBF=F ICtDFT=           0.
 Integral derivatives from FoFDir, PRISM(SPDF).
 Calling FoFJK, ICntrl=    100147 FMM=F ISym2X=0 I1Cent= 0 IOpClX= 0 NMat=1 NMatS=1 NMatT=0.
 FoFCou: FMM=F IPFlag=           0 FMFlag=      100000 FMFlg1=         800
         NFxFlg=           0 DoJE=F BraDBF=F KetDBF=F FulRan=T
         Omega=  0.000000  0.000000  1.000000  0.000000  0.000000 ICntrl=  100147 IOpCl=  0
         NMat0=    1 NMatS0=    1 NMatT0=    0 NMatD0=    1 NMtDS0=    0 NMtDT0=    0
         I1Cent=           0 NGrid=           0.
 Symmetry not used in FoFCou.
 Leave Link  703 at Sat Apr 16 03:45:33 2016, MaxMem=   33554432 cpu:    2005.0
 (Enter c:\G09w01\l716.exe)
 Dipole        =-5.30381323D-01 9.41531756D-01-6.89180427D-01
 Polarizability= 0.00000000D+00 0.00000000D+00 0.00000000D+00
                 0.00000000D+00 0.00000000D+00 0.00000000D+00
 -------------------------------------------------------------------
 Center     Atomic                   Forces (Hartrees/Bohr)
 Number     Number              X              Y              Z
 -------------------------------------------------------------------
      1        7           0.005241725    0.002345276    0.007861816
      2        1          -0.000768554   -0.000401178   -0.004508404
      3        6          -0.031237367    0.040512543    0.054285341
      4        1           0.025622984   -0.063442754   -0.033402961
      5        6           0.007743851   -0.011685657    0.023360635
      6        6          -0.007127676    0.009178240   -0.068337654
      7        1           0.001056401   -0.000041737   -0.001243332
      8        1          -0.004033634    0.002173235    0.000906568
      9        6           0.001553395    0.000434922   -0.001214050
     10        8           0.003777128    0.007261944    0.009002197
     11        6          -0.000656136   -0.000598466   -0.000050770
     12        6           0.000429758   -0.000320292    0.000083069
     13        1          -0.000004614    0.000083438   -0.000043936
     14        6           0.000593971    0.000093890    0.000335544
     15        6          -0.000566430   -0.000275713   -0.000229286
     16        1          -0.000323620    0.000351359   -0.000049589
     17        1          -0.000010075    0.000021523    0.000026739
     18        6           0.000000540    0.000508815   -0.000328021
     19        1          -0.000009513   -0.000016508    0.000008250
     20        1          -0.000002659    0.000046129    0.000006704
     21        1           0.000689102   -0.000567016   -0.001102978
     22        8          -0.000071504    0.012261472    0.016820826
     23        1          -0.001897074    0.002076534   -0.002186709
 -------------------------------------------------------------------
 Cartesian Forces:  Max     0.068337654 RMS     0.015994386
 Leave Link  716 at Sat Apr 16 03:45:34 2016, MaxMem=   33554432 cpu:       0.0
 (Enter c:\G09w01\l103.exe)

 GradGradGradGradGradGradGradGradGradGradGradGradGradGradGradGradGradGrad
 Berny optimization.
 Red2BG is reusing G-inverse.
 Internal  Forces:  Max     0.054271701 RMS     0.007858062
 Search for a saddle point.
 Step number   1 out of a maximum of  128
 All quantities printed in internal units (Hartrees-Bohrs-Radians)
 Swaping is turned off.
 Second derivative matrix not updated -- analytic derivatives used.
 ITU=  0
     Eigenvalues ---   -0.03448   0.00072   0.00114   0.00210   0.00238
     Eigenvalues ---    0.00976   0.01227   0.01597   0.01719   0.01754
     Eigenvalues ---    0.01924   0.02061   0.02340   0.02455   0.02609
     Eigenvalues ---    0.02849   0.02901   0.02921   0.03640   0.03981
     Eigenvalues ---    0.04331   0.04574   0.06890   0.07794   0.08581
     Eigenvalues ---    0.10687   0.10793   0.11286   0.11691   0.11814
     Eigenvalues ---    0.12216   0.12625   0.13932   0.14177   0.17284
     Eigenvalues ---    0.17403   0.17922   0.18474   0.19287   0.19403
     Eigenvalues ---    0.19619   0.22636   0.24963   0.28080   0.30478
     Eigenvalues ---    0.32913   0.33053   0.33866   0.35162   0.35476
     Eigenvalues ---    0.35536   0.35575   0.35788   0.37531   0.40553
     Eigenvalues ---    0.40898   0.44158   0.44704   0.45836   0.46056
     Eigenvalues ---    0.49946   0.50513   0.74013
 Eigenvectors required to have negative eigenvalues:
                          R4        R8        D30       D20       D29
   1                    0.65380  -0.46678  -0.39048  -0.14939   0.14389
                          D18       A18       D21       D31       D14
   1                   -0.13341   0.12859  -0.11344   0.10880   0.10214
 RFO step:  Lambda0=3.871374786D-02 Lambda=-4.31600943D-02.
 Linear search not attempted -- option 19 set.
 Maximum step size (   0.300) exceeded in Quadratic search.
    -- Step size scaled by   0.370
 Iteration  1 RMS(Cart)=  0.03753201 RMS(Int)=  0.00583553
 Iteration  2 RMS(Cart)=  0.00592113 RMS(Int)=  0.00271130
 Iteration  3 RMS(Cart)=  0.00019034 RMS(Int)=  0.00270914
 Iteration  4 RMS(Cart)=  0.00000339 RMS(Int)=  0.00270914
 Iteration  5 RMS(Cart)=  0.00000010 RMS(Int)=  0.00270914
 Variable       Old X    -DE/DX   Delta X   Delta X   Delta X     New X
                                 (Linear)    (Quad)   (Total)
    R1        1.92016   0.00368   0.00000   0.00348   0.00348   1.92364
    R2        2.76929  -0.00571   0.00000  -0.00367  -0.00367   2.76562
    R3        1.91926  -0.00131   0.00000  -0.00105  -0.00105   1.91821
    R4        3.06137  -0.05427   0.00000   0.08210   0.07485   3.13623
    R5        2.92203  -0.00940   0.00000  -0.01136  -0.01136   2.91067
    R6        2.89131  -0.00544   0.00000  -0.01701  -0.01350   2.87781
    R7        3.06367   0.01866   0.00000   0.05959   0.05852   3.12219
    R8        3.02356   0.01302   0.00000  -0.20871  -0.20262   2.82094
    R9        2.06579   0.00026   0.00000   0.00089   0.00089   2.06667
   R10        2.06633   0.00133   0.00000   0.00378   0.00378   2.07011
   R11        2.86046   0.00063   0.00000   0.00097   0.00097   2.86143
   R12        2.54826  -0.00061   0.00000  -0.02555  -0.02555   2.52271
   R13        2.28892   0.01462   0.00000   0.02164   0.02113   2.31004
   R14        2.64482  -0.00035   0.00000  -0.00006  -0.00006   2.64476
   R15        2.64851  -0.00037   0.00000   0.00002   0.00002   2.64853
   R16        1.83385   0.00143   0.00000   0.00073   0.00073   1.83458
   R17        2.05055   0.00007   0.00000   0.00002   0.00002   2.05057
   R18        2.63776   0.00043   0.00000   0.00053   0.00053   2.63829
   R19        2.63363  -0.00036   0.00000  -0.00021  -0.00021   2.63342
   R20        2.05144  -0.00020   0.00000  -0.00024  -0.00024   2.05120
   R21        2.04927   0.00000   0.00000   0.00007   0.00007   2.04934
   R22        2.63419  -0.00037   0.00000  -0.00028  -0.00028   2.63391
   R23        2.63817   0.00045   0.00000   0.00045   0.00045   2.63862
   R24        2.04927   0.00001   0.00000   0.00009   0.00009   2.04935
   R25        2.04882   0.00001   0.00000   0.00005   0.00005   2.04887
    A1        1.93221   0.00188   0.00000   0.01086   0.01082   1.94304
    A2        1.87055  -0.00004   0.00000   0.00294   0.00286   1.87341
    A3        1.93561   0.00087   0.00000   0.00383   0.00379   1.93940
    A4        1.88507   0.00433   0.00000   0.04385   0.04357   1.92864
    A5        1.91146   0.01234   0.00000   0.00568   0.00538   1.91684
    A6        1.97735  -0.00040   0.00000  -0.00461  -0.00206   1.97529
    A7        2.45848  -0.01925   0.00000  -0.04899  -0.04823   2.41026
    A8        1.94240  -0.01591   0.00000  -0.01394  -0.01592   1.92649
    A9        1.71667   0.00623   0.00000   0.01124   0.00934   1.72600
   A10        1.85264   0.00113   0.00000   0.00278   0.00279   1.85543
   A11        1.89671  -0.00577   0.00000   0.00369   0.00370   1.90040
   A12        1.99540   0.00444   0.00000   0.00228   0.00228   1.99768
   A13        1.87197   0.00098   0.00000  -0.00331  -0.00333   1.86865
   A14        1.92300  -0.00196   0.00000  -0.00244  -0.00244   1.92055
   A15        1.91922   0.00097   0.00000  -0.00313  -0.00314   1.91609
   A16        1.95983   0.02531   0.00000   0.07198   0.05798   2.01782
   A17        2.18297  -0.02264   0.00000  -0.06415  -0.06558   2.11738
   A18        2.74816   0.01268   0.00000   0.13952   0.13187   2.88003
   A19        2.14029  -0.00274   0.00000  -0.00791   0.00762   2.14791
   A20        2.11240  -0.00019   0.00000   0.00035   0.00035   2.11275
   A21        2.10422  -0.00007   0.00000   0.00017   0.00017   2.10438
   A22        2.06654   0.00026   0.00000  -0.00052  -0.00052   2.06602
   A23        1.89678   0.00580   0.00000   0.01479   0.01479   1.91157
   A24        2.08557   0.00007   0.00000  -0.00048  -0.00048   2.08509
   A25        2.11006  -0.00003   0.00000   0.00046   0.00046   2.11052
   A26        2.08754  -0.00004   0.00000   0.00002   0.00002   2.08757
   A27        2.10984  -0.00014   0.00000   0.00025   0.00025   2.11009
   A28        2.08750  -0.00028   0.00000  -0.00121  -0.00121   2.08629
   A29        2.08583   0.00042   0.00000   0.00095   0.00095   2.08679
   A30        2.09023   0.00008   0.00000   0.00005   0.00005   2.09028
   A31        2.09660  -0.00015   0.00000  -0.00014  -0.00014   2.09646
   A32        2.09635   0.00007   0.00000   0.00009   0.00009   2.09644
   A33        2.09692   0.00012   0.00000   0.00021   0.00021   2.09713
   A34        2.09072  -0.00008   0.00000   0.00005   0.00005   2.09077
   A35        2.09553  -0.00004   0.00000  -0.00026  -0.00026   2.09527
   A36        2.08641  -0.00006   0.00000  -0.00027  -0.00027   2.08614
   A37        2.09876   0.00000   0.00000   0.00013   0.00013   2.09888
   A38        2.09801   0.00006   0.00000   0.00015   0.00015   2.09815
    D1        2.18472   0.01335   0.00000   0.02076   0.02049   2.20521
    D2       -1.15464   0.00145   0.00000   0.01487   0.01550  -1.13913
    D3        1.02517  -0.01019   0.00000  -0.00241  -0.00270   1.02247
    D4        0.11067   0.01163   0.00000   0.00764   0.00732   0.11799
    D5        3.05449  -0.00027   0.00000   0.00175   0.00234   3.05683
    D6       -1.04888  -0.01191   0.00000  -0.01553  -0.01587  -1.06475
    D7       -2.12302   0.00269   0.00000   0.07080   0.07416  -2.04886
    D8        1.31634   0.01231   0.00000   0.06073   0.06397   1.38031
    D9       -0.96008   0.00317   0.00000  -0.00848  -0.00800  -0.96808
   D10        1.04840   0.00212   0.00000  -0.00914  -0.00866   1.03975
   D11       -3.08365   0.00210   0.00000  -0.00880  -0.00832  -3.09197
   D12        1.88098  -0.00746   0.00000   0.00548   0.00624   1.88721
   D13       -2.39372  -0.00851   0.00000   0.00482   0.00558  -2.38814
   D14       -0.24259  -0.00854   0.00000   0.00516   0.00592  -0.23667
   D15        3.12319   0.00604   0.00000   0.00334   0.00211   3.12529
   D16       -1.15151   0.00499   0.00000   0.00269   0.00145  -1.15006
   D17        0.99962   0.00496   0.00000   0.00303   0.00179   1.00141
   D18       -0.99810   0.00316   0.00000  -0.07035  -0.07456  -1.07266
   D19        2.12887  -0.00199   0.00000  -0.07548  -0.07227   2.05659
   D20        1.16490   0.00681   0.00000  -0.07720  -0.08125   1.08365
   D21       -1.99131   0.00167   0.00000  -0.08233  -0.07897  -2.07028
   D22       -2.78277  -0.00622   0.00000  -0.07964  -0.08547  -2.86824
   D23       -1.80884   0.00219   0.00000   0.00067   0.00067  -1.80817
   D24        1.32504   0.00218   0.00000   0.00031   0.00031   1.32535
   D25        2.38990  -0.00085   0.00000  -0.00269  -0.00269   2.38721
   D26       -0.75940  -0.00086   0.00000  -0.00306  -0.00305  -0.76245
   D27        0.33009  -0.00145   0.00000   0.00476   0.00475   0.33484
   D28       -2.81921  -0.00145   0.00000   0.00439   0.00439  -2.81482
   D29        3.12264  -0.00518   0.00000   0.02445   0.03222  -3.12833
   D30        1.90399   0.00377   0.00000  -0.14615  -0.15451   1.74948
   D31       -0.00474   0.00002   0.00000   0.03000   0.03059   0.02584
   D32       -0.01740   0.00000   0.00000   0.00018   0.00018  -0.01722
   D33        3.13004  -0.00003   0.00000  -0.00026  -0.00026   3.12979
   D34        3.13174   0.00001   0.00000   0.00053   0.00053   3.13227
   D35       -0.00401  -0.00003   0.00000   0.00009   0.00009  -0.00391
   D36       -3.12957   0.00000   0.00000  -0.00037  -0.00037  -3.12995
   D37        0.01873  -0.00012   0.00000  -0.00059  -0.00059   0.01814
   D38        0.00451  -0.00001   0.00000  -0.00073  -0.00073   0.00379
   D39       -3.13037  -0.00013   0.00000  -0.00095  -0.00095  -3.13131
   D40        3.13794   0.00004   0.00000   0.00030   0.00030   3.13824
   D41        0.00060   0.00004   0.00000   0.00046   0.00046   0.00107
   D42        0.00220   0.00000   0.00000  -0.00014  -0.00014   0.00207
   D43       -3.13514   0.00000   0.00000   0.00003   0.00003  -3.13510
   D44       -0.00162   0.00003   0.00000   0.00080   0.00080  -0.00082
   D45       -3.13753  -0.00003   0.00000   0.00040   0.00040  -3.13714
   D46        3.13327   0.00015   0.00000   0.00101   0.00101   3.13428
   D47       -0.00265   0.00009   0.00000   0.00061   0.00061  -0.00204
   D48        0.00238  -0.00002   0.00000  -0.00040  -0.00040   0.00199
   D49        3.13870   0.00001   0.00000  -0.00022  -0.00022   3.13847
   D50       -3.13494  -0.00002   0.00000  -0.00023  -0.00023  -3.13517
   D51        0.00138   0.00001   0.00000  -0.00006  -0.00006   0.00132
   D52       -0.00188  -0.00002   0.00000  -0.00023  -0.00023  -0.00211
   D53       -3.13820  -0.00004   0.00000  -0.00040  -0.00040  -3.13860
   D54        3.13402   0.00005   0.00000   0.00018   0.00018   3.13420
   D55       -0.00230   0.00002   0.00000   0.00001   0.00001  -0.00229
         Item               Value     Threshold  Converged?
 Maximum Force            0.054272     0.000450     NO 
 RMS     Force            0.007858     0.000300     NO 
 Maximum Displacement     0.269349     0.001800     NO 
 RMS     Displacement     0.041444     0.001200     NO 
 Predicted change in Energy=-1.584567D-03
 GradGradGradGradGradGradGradGradGradGradGradGradGradGradGradGradGradGrad

 Leave Link  103 at Sat Apr 16 03:45:34 2016, MaxMem=   33554432 cpu:       0.0
 (Enter c:\G09w01\l202.exe)
                          Input orientation:                          
 ---------------------------------------------------------------------
 Center     Atomic      Atomic             Coordinates (Angstroms)
 Number     Number       Type             X           Y           Z
 ---------------------------------------------------------------------
      1          7           0       -2.950570   -1.338510   -0.404638
      2          1           0       -3.297709   -0.852737   -1.229101
      3          6           0       -1.680022   -0.772799    0.050911
      4          1           0       -1.770817   -0.356760    1.654969
      5          6           0       -0.590752   -1.012237   -1.011425
      6          6           0       -1.771560    0.708537    0.392083
      7          1           0       -0.570390   -2.090542   -1.192767
      8          1           0       -0.897901   -0.534459   -1.948123
      9          6           0        0.787893   -0.526400   -0.616310
     10          8           0       -2.115524    1.512801   -0.616368
     11          6           0        1.316067    0.656145   -1.146739
     12          6           0        1.562973   -1.249643    0.300472
     13          1           0        0.734749    1.225522   -1.864618
     14          6           0        2.581818    1.108952   -0.769913
     15          6           0        2.826941   -0.801559    0.679387
     16          1           0        1.175706   -2.174464    0.716314
     17          1           0        2.974057    2.026246   -1.195098
     18          6           0        3.340830    0.381870    0.145482
     19          1           0        3.413060   -1.377558    1.387036
     20          1           0        4.325258    0.729918    0.437511
     21          1           0       -3.663450   -1.262262    0.313946
     22          8           0       -1.553898    1.114391    1.524435
     23          1           0       -2.135400    2.432366   -0.305732
 ---------------------------------------------------------------------
                    Distance matrix (angstroms):
                    1          2          3          4          5
     1  N    0.000000
     2  H    1.017949   0.000000
     3  C    1.463505   2.064397   0.000000
     4  H    2.568585   3.300796   1.659619   0.000000
     5  C    2.458329   2.720375   1.540258   2.988622   0.000000
[...]
    D3        1.43366   0.00005   0.00000   0.01065   0.01066   1.44431
    D4        0.71666  -0.00011   0.00000   0.00987   0.00987   0.72653
    D5        3.13378  -0.00002   0.00000   0.01346   0.01345  -3.13595
    D6       -0.71791   0.00003   0.00000   0.01251   0.01251  -0.70540
    D7       -1.97226  -0.00002   0.00000  -0.00068  -0.00068  -1.97294
    D8        1.85930  -0.00010   0.00000  -0.00437  -0.00437   1.85493
    D9       -1.06871   0.00012   0.00000   0.02452   0.02452  -1.04419
   D10        0.91614   0.00012   0.00000   0.02495   0.02495   0.94109
   D11        3.06347   0.00012   0.00000   0.02537   0.02537   3.08884
   D12        1.62340   0.00016   0.00000   0.02585   0.02585   1.64925
   D13       -2.67494   0.00016   0.00000   0.02628   0.02628  -2.64866
   D14       -0.52761   0.00016   0.00000   0.02670   0.02670  -0.50090
   D15        2.77378   0.00004   0.00000   0.02488   0.02488   2.79866
   D16       -1.52456   0.00005   0.00000   0.02531   0.02531  -1.49925
   D17        0.62278   0.00005   0.00000   0.02573   0.02573   0.64851
   D18       -0.51371   0.00016   0.00000   0.00044   0.00044  -0.51327
   D19        2.50099  -0.00008   0.00000   0.00068   0.00068   2.50167
   D20        1.86214   0.00022   0.00000   0.00073   0.00074   1.86287
   D21       -1.40635  -0.00002   0.00000   0.00097   0.00097  -1.40538
   D22       -2.95266   0.00000   0.00000   0.00229   0.00229  -2.95038
   D23       -1.58374   0.00007   0.00000  -0.00913  -0.00913  -1.59287
   D24        1.56760   0.00004   0.00000  -0.01204  -0.01204   1.55555
   D25        2.57613  -0.00001   0.00000  -0.00735  -0.00735   2.56879
   D26       -0.55572  -0.00004   0.00000  -0.01026  -0.01026  -0.56598
   D27        0.56089  -0.00006   0.00000  -0.00892  -0.00892   0.55197
   D28       -2.57096  -0.00009   0.00000  -0.01183  -0.01183  -2.58279
   D29        2.84573  -0.00027   0.00000  -0.00556  -0.00556   2.84017
   D30        0.69640   0.00025   0.00000  -0.00333  -0.00333   0.69307
   D31       -0.15656   0.00001   0.00000  -0.00601  -0.00601  -0.16257
   D32       -0.00604  -0.00003   0.00000  -0.00343  -0.00343  -0.00948
   D33        3.14122  -0.00005   0.00000  -0.00358  -0.00358   3.13765
   D34        3.12604   0.00000   0.00000  -0.00060  -0.00060   3.12545
   D35       -0.00988  -0.00001   0.00000  -0.00074  -0.00074  -0.01062
   D36        3.13967   0.00004   0.00000   0.00330   0.00330  -3.14022
   D37        0.00039   0.00005   0.00000   0.00349   0.00349   0.00389
   D38        0.00758   0.00001   0.00000   0.00046   0.00046   0.00804
   D39       -3.13170   0.00001   0.00000   0.00066   0.00066  -3.13104
   D40        3.13949   0.00001   0.00000   0.00039   0.00039   3.13988
   D41        0.00517   0.00001   0.00000   0.00050   0.00050   0.00567
   D42        0.00357  -0.00001   0.00000   0.00026   0.00026   0.00383
   D43       -3.13075   0.00000   0.00000   0.00036   0.00036  -3.13038
   D44       -0.00056   0.00000   0.00000   0.00005   0.00005  -0.00051
   D45       -3.13728   0.00000   0.00000   0.00026   0.00026  -3.13702
   D46        3.13871  -0.00001   0.00000  -0.00015  -0.00015   3.13856
   D47        0.00199   0.00000   0.00000   0.00006   0.00006   0.00205
   D48        0.00206   0.00000   0.00000   0.00002   0.00002   0.00208
   D49        3.13681  -0.00001   0.00000  -0.00023  -0.00023   3.13658
   D50       -3.13224   0.00000   0.00000   0.00013   0.00013  -3.13211
   D51        0.00251   0.00000   0.00000  -0.00012  -0.00012   0.00238
   D52       -0.00433   0.00000   0.00000  -0.00030  -0.00030  -0.00463
   D53       -3.13908   0.00000   0.00000  -0.00004  -0.00004  -3.13912
   D54        3.13237  -0.00001   0.00000  -0.00050  -0.00050   3.13187
   D55       -0.00238   0.00000   0.00000  -0.00024  -0.00024  -0.00262
         Item               Value     Threshold  Converged?
 Maximum Force            0.000884     0.000450     NO 
 RMS     Force            0.000139     0.000300     YES
 Maximum Displacement     0.059578     0.001800     NO 
 RMS     Displacement     0.015782     0.001200     NO 
 Predicted change in Energy=-1.399986D-05
 GradGradGradGradGradGradGradGradGradGradGradGradGradGradGradGradGradGrad

 Leave Link  103 at Sat Apr 16 09:04:05 2016, MaxMem=   33554432 cpu:       0.0
 (Enter c:\G09w01\l202.exe)
                          Input orientation:                          
 ---------------------------------------------------------------------
 Center     Atomic      Atomic             Coordinates (Angstroms)
 Number     Number       Type             X           Y           Z
 ---------------------------------------------------------------------
      1          7           0       -3.017909   -1.182722   -0.630048
      2          1           0       -3.156483   -0.980132   -1.620340
      3          6           0       -1.800058   -0.621023   -0.096381
      4          1           0       -1.120280   -0.302939    1.301087
      5          6           0       -0.592207   -1.124422   -0.913826
      6          6           0       -1.795903    0.761970    0.318687
      7          1           0       -0.594349   -2.214167   -0.824752
      8          1           0       -0.782353   -0.900323   -1.975613
      9          6           0        0.775226   -0.591169   -0.552763
     10          8           0       -2.521746    1.747562   -0.157885
     11          6           0        1.287291    0.552417   -1.176669
     12          6           0        1.564237   -1.234432    0.408794
     13          1           0        0.696552    1.056152   -1.935651
     14          6           0        2.547429    1.049022   -0.841465
     15          6           0        2.825537   -0.744454    0.745628
     16          1           0        1.187074   -2.128390    0.895643
     17          1           0        2.926974    1.935573   -1.337594
     18          6           0        3.320592    0.402055    0.122632
     19          1           0        3.423121   -1.259461    1.489868
     20          1           0        4.302043    0.783384    0.381445
     21          1           0       -3.841164   -0.874660   -0.125964
     22          8           0       -1.061636    0.917308    1.370228
     23          1           0       -2.530629    2.499673    0.456656
 ---------------------------------------------------------------------
                    Distance matrix (angstroms):
                    1          2          3          4          5
     1  N    0.000000
     2  H    1.020256   0.000000
     3  C    1.443422   2.071545   0.000000
     4  H    2.846804   3.624837   1.586251   0.000000
     5  C    2.442941   2.663737   1.542897   2.420647   0.000000
     6  C    2.484999   2.940395   1.443942   1.598627   2.554691
     7  H    2.641104   2.953021   2.126585   2.906645   1.093382
     8  H    2.624501   2.401891   2.155283   3.347808   1.101711
     9  C    3.839763   4.092597   2.615581   2.666979   1.511489
    10  O    3.009265   3.159427   2.476855   2.880497   3.541590
    11  C    4.673783   4.721512   3.475012   3.559115   2.532466
    12  C    4.698715   5.144633   3.456870   2.978337   2.532128
    13  H    4.529280   4.369411   3.525464   3.952781   2.731286
    14  C    5.999863   6.103992   4.716444   4.457624   3.819215
    15  C    6.019171   6.437228   4.703226   4.009107   3.818263
    16  H    4.572079   5.149287   3.489874   2.969939   2.729097
    17  H    6.750260   6.752017   5.515580   5.324831   4.682710
    18  C    6.576826   6.848423   5.226444   4.648345   4.326011
    19  H    6.781356   7.283035   5.495942   4.646833   4.681756
    20  H    7.646593   7.921284   6.279834   5.606016   5.410280
    21  H    1.013287   1.647140   2.057018   3.125148   3.352437
    22  O    3.498318   4.114870   2.250038   1.223611   3.099343
    23  H    3.870193   4.100566   3.252434   3.249120   4.332408
                    6          7          8          9         10
     6  C    0.000000
     7  H    3.407136   0.000000
     8  H    3.009038   1.756704   0.000000
     9  C    3.033334   2.140990   2.132166   0.000000
    10  O    1.313530   4.455880   3.652522   4.061479   0.000000
    11  C    3.433087   3.364283   2.651828   1.399735   4.120079
    12  C    3.909511   2.672267   3.362069   1.400328   5.090056
    13  H    3.373561   3.687208   2.452866   2.152263   3.741115
    14  C    4.504763   4.529840   4.021652   2.431929   5.162536
    15  C    4.879478   4.040021   4.521760   2.431685   5.968242
    16  H    4.193473   2.478021   3.692005   2.151871   5.467017
    17  H    5.140640   5.466540   4.712587   3.410337   5.578137
    18  C    5.132885   4.803011   4.788839   2.814523   6.001833
    19  H    5.718047   4.733814   5.461185   3.410323   6.862851
    20  H    6.098307   5.866420   5.851639   3.898792   6.912641
    21  H    2.656946   3.581116   3.574659   4.644737   2.935631
    22  O    1.291904   3.852587   3.817909   3.057361   2.270764
    23  H    1.891684   5.254661   4.531266   4.636906   0.971293
                   11         12         13         14         15
    11  C    0.000000
    12  C    2.404833   0.000000
    13  H    1.085714   3.390586   0.000000
    14  C    1.395323   2.782801   2.150125   0.000000
    15  C    2.782679   1.394422   3.868335   2.410968   0.000000
    16  H    3.389874   1.085557   4.289306   3.868340   2.149963
    17  H    2.151180   3.867280   2.470999   1.084514   3.395975
    18  C    2.417666   2.417595   3.398523   1.394931   1.395596
    19  H    3.867181   2.150534   4.952820   3.395739   1.084542
    20  H    3.401440   3.401164   4.294520   2.155167   2.155688
    21  H    5.426010   5.443690   5.252987   6.710187   6.724695
    22  O    3.483861   3.528392   3.746910   4.234889   4.273370
    23  H    4.586509   5.541999   4.268674   5.438398   6.268682
                   16         17         18         19         20
    16  H    0.000000
    17  H    4.952816   0.000000
    18  C    3.398911   2.153804   0.000000
    19  H    2.471446   4.295223   2.154178   0.000000
    20  H    4.294864   2.484643   1.084270   2.484818   0.000000
    21  H    5.281922   7.427863   7.278912   7.451766   8.325767
    22  O    3.815522   4.927288   4.585402   4.986550   5.455701
    23  H    5.952562   5.772605   6.224818   7.116583   7.045332
                   21         22         23
    21  H    0.000000
    22  O    3.629810   0.000000
    23  H    3.666479   2.344447   0.000000
 Symmetry turned off by external request.
 Stoichiometry    C9H11NO2
 Framework group  C1[X(C9H11NO2)]
 Deg. of freedom    63
 Full point group                 C1      NOp   1
 Rotational constants (GHZ):      1.7900887      0.5836838      0.5316077
 Leave Link  202 at Sat Apr 16 09:04:05 2016, MaxMem=   33554432 cpu:       0.0
 (Enter c:\G09w01\l301.exe)
 Standard basis: 6-311++G(d,p) (5D, 7F)
 Ernie: Thresh=  0.10000D-02 Tol=  0.10000D-05 Strict=F.
 Integral buffers will be    262144 words long.
 Raffenetti 2 integral format.
 Two-electron integral symmetry is turned off.
   341 basis functions,   531 primitive gaussians,   353 cartesian basis functions
    44 alpha electrons       44 beta electrons
       nuclear repulsion energy       682.9369106048 Hartrees.
 IExCor=  402 DFT=T Ex+Corr=B3LYP ExCW=0 ScaHFX=  0.200000
 ScaDFX=  0.800000  0.720000  1.000000  0.810000 ScalE2=  1.000000  1.000000
 IRadAn=      0 IRanWt=     -1 IRanGd=            0 ICorTp=0
 NAtoms=   23 NActive=   23 NUniq=   23 SFac= 1.00D+00 NAtFMM=   50 NAOKFM=F Big=F
 ------------------------------------------------------------------------------
 Polarizable Continuum Model (PCM)
 =================================
 Model                : C-PCM.
 Atomic radii         : UFF (Universal Force Field).
 Polarization charges : Total charges.
 Charge compensation  : None.
 Solution method      : Matrix inversion.
 Cavity type          : Scaled VdW (van der Waals Surface) (Alpha=1.100).
 Cavity algorithm     : GePol (No added spheres)
                        Default sphere list used, NSphG=   23.
                        Lebedev-Laikov grids with approx.  5.0 points / Ang**2.
                        Smoothing algorithm: Karplus/York (Gamma=1.0000).
                        Polarization charges: spherical gaussians, with
                                              point-specific exponents (IZeta= 3).
                        Self-potential: point-specific (ISelfS= 7).
                        Self-field    : sphere-specific E.n sum rule (ISelfD= 2).
 1st derivatives      : Analytical E(r).r(x)/FMM algorithm (CHGder, D1EAlg=3).
                        Cavity 1st derivative terms included.
 Solvent              : Water, Eps=  78.355300 Eps(inf)=   1.777849
 ------------------------------------------------------------------------------
 GePol: Number of generator spheres                  =      23
 GePol: Total number of spheres                      =      23
 GePol: Number of exposed spheres                    =      23 (100.00%)
 GePol: Number of points                             =    1799
 GePol: Average weight of points                     =       0.13
 GePol: Minimum weight of points                     =   0.47D-11
 GePol: Maximum weight of points                     =    0.20577
 GePol: Number of points with low weight             =     121
 GePol: Fraction of low-weight points (<1% of avg)   =       6.73%
 GePol: Cavity surface area                          =    239.210 Ang**2
 GePol: Cavity volume                                =    243.613 Ang**3
 Leave Link  301 at Sat Apr 16 09:04:05 2016, MaxMem=   33554432 cpu:       0.0
 (Enter c:\G09w01\l302.exe)
 NPDir=0 NMtPBC=     1 NCelOv=     1 NCel=       1 NClECP=     1 NCelD=      1
         NCelK=      1 NCelE2=     1 NClLst=     1 CellRange=     0.0.
 One-electron integrals computed using PRISM.
 NBasis=   341 RedAO= T  NBF=   341
 NBsUse=   340 1.00D-06 NBFU=   340
 Precomputing XC quadrature grid using
 IXCGrd= 2 IRadAn=           0 IRanWt=          -1 IRanGd=           0 AccXCQ= 0.00D+00.
 NRdTot=    1494 NPtTot=      190342 NUsed=      197308 NTot=      197324
 NSgBfM=   353   353   353   353   353 NAtAll=    23    23.
 Leave Link  302 at Sat Apr 16 09:04:06 2016, MaxMem=   33554432 cpu:       1.0
 (Enter c:\G09w01\l303.exe)
 DipDrv:  MaxL=1.
 Leave Link  303 at Sat Apr 16 09:04:06 2016, MaxMem=   33554432 cpu:       0.0
 (Enter c:\G09w01\l401.exe)
 Initial guess read from the read-write file.
 B after Tr=     0.000000    0.000000    0.000000
         Rot=    1.000000    0.000000    0.000000    0.000000 Ang=   0.00 deg.
 Guess basis will be translated and rotated to current coordinates.
 Generating alternative initial guess.
 Harris functional with IExCor=  402 diagonalized for initial guess.
 ExpMin= 3.60D-02 ExpMax= 8.59D+03 ExpMxC= 1.30D+03 IAcc=3 IRadAn=         0 AccDes= 0.00D+00
 HarFok:  IExCor=  402 AccDes= 0.00D+00 IRadAn=         0 IDoV= 1
 ScaDFX=  1.000000  1.000000  1.000000  1.000000
 FoFCou: FMM=F IPFlag=           0 FMFlag=      100000 FMFlg1=           0
         NFxFlg=           0 DoJE=T BraDBF=F KetDBF=T FulRan=T
         Omega=  0.000000  0.000000  1.000000  0.000000  0.000000 ICntrl=     500 IOpCl=  0
         NMat0=    1 NMatS0=    1 NMatT0=    0 NMatD0=    1 NMtDS0=    0 NMtDT0=    0
         I1Cent=           4 NGrid=           0.
 Symmetry not used in FoFCou.
 Harris En= -554.859946020311    
 Leave Link  401 at Sat Apr 16 09:04:23 2016, MaxMem=   33554432 cpu:      17.0
 (Enter c:\G09w01\l502.exe)
 Closed shell SCF:
 Requested convergence on RMS density matrix=1.00D-08 within 128 cycles.
 Requested convergence on MAX density matrix=1.00D-06.
 Requested convergence on             energy=1.00D-06.
 No special actions if energy rises.
 Using DIIS extrapolation, IDIIS=  1040.
 Two-electron integral symmetry not used.
       197111 words used for storage of precomputed grid.
 IEnd=      593156 IEndB=      593156 NGot=    33554432 MDV=    33102879
 LenX=    33102879 LenY=    32977829
 Fock matrices will be formed incrementally for  20 cycles.

 Cycle   1  Pass 1  IDiag  1:
 FoFCou: FMM=F IPFlag=           0 FMFlag=      100000 FMFlg1=           0
         NFxFlg=           0 DoJE=F BraDBF=F KetDBF=F FulRan=T
         Omega=  0.000000  0.000000  1.000000  0.000000  0.000000 ICntrl=       0 IOpCl=  0
         NMat0=    1 NMatS0=    1 NMatT0=    0 NMatD0=    1 NMtDS0=    0 NMtDT0=    0
         I1Cent=           0 NGrid=           0.
 Symmetry not used in FoFCou.
 E= -554.848092089009    
 DIIS: error= 8.37D-04 at cycle   1 NSaved=   1.
 NSaved= 1 IEnMin= 1 EnMin= -554.848092089009     IErMin= 1 ErrMin= 8.37D-04
 ErrMax= 8.37D-04 EMaxC= 1.00D-01 BMatC= 4.95D-04 BMatP= 4.95D-04
 IDIUse=3 WtCom= 9.92D-01 WtEn= 8.37D-03
 Coeff-Com:  0.100D+01
 Coeff-En:   0.100D+01
 Coeff:      0.100D+01
 Gap=     0.163 Goal=   None    Shift=    0.000
 RMSDP=8.91D-04 MaxDP=7.49D-02              OVMax= 6.47D-03

 Cycle   2  Pass 1  IDiag  1:
 RMSU=  6.01D-04    CP:  1.01D+00
 E= -554.848813758718     Delta-E=       -0.000721669709 Rises=F Damp=F
 DIIS: error= 1.37D-04 at cycle   2 NSaved=   2.
 NSaved= 2 IEnMin= 2 EnMin= -554.848813758718     IErMin= 2 ErrMin= 1.37D-04
 ErrMax= 1.37D-04 EMaxC= 1.00D-01 BMatC= 1.12D-05 BMatP= 4.95D-04
 IDIUse=3 WtCom= 9.99D-01 WtEn= 1.37D-03
 Coeff-Com: -0.286D-01 0.103D+01
 Coeff-En:   0.000D+00 0.100D+01
 Coeff:     -0.286D-01 0.103D+01
 Gap=     0.159 Goal=   None    Shift=    0.000
 RMSDP=1.27D-04 MaxDP=9.19D-03 DE=-7.22D-04 OVMax= 1.62D-03

 Cycle   3  Pass 1  IDiag  1:
 RMSU=  7.17D-05    CP:  1.01D+00  9.66D-01
 E= -554.848809499397     Delta-E=        0.000004259321 Rises=F Damp=F
 DIIS: error= 2.69D-04 at cycle   3 NSaved=   3.
 NSaved= 3 IEnMin= 2 EnMin= -554.848813758718     IErMin= 2 ErrMin= 1.37D-04
 ErrMax= 2.69D-04 EMaxC= 1.00D-01 BMatC= 2.17D-05 BMatP= 1.12D-05
 IDIUse=3 WtCom= 3.79D-01 WtEn= 6.21D-01
 Coeff-Com: -0.344D-01 0.623D+00 0.412D+00
 Coeff-En:   0.000D+00 0.587D+00 0.413D+00
 Coeff:     -0.130D-01 0.600D+00 0.413D+00
 Gap=     0.159 Goal=   None    Shift=    0.000
 RMSDP=6.99D-05 MaxDP=5.93D-03 DE= 4.26D-06 OVMax= 1.21D-03

 Cycle   4  Pass 1  IDiag  1:
 RMSU=  1.93D-05    CP:  1.01D+00  9.87D-01  5.25D-01
 E= -554.848825192168     Delta-E=       -0.000015692771 Rises=F Damp=F
 DIIS: error= 7.14D-05 at cycle   4 NSaved=   4.
 NSaved= 4 IEnMin= 4 EnMin= -554.848825192168     IErMin= 4 ErrMin= 7.14D-05
 ErrMax= 7.14D-05 EMaxC= 1.00D-01 BMatC= 1.10D-06 BMatP= 1.12D-05
 IDIUse=1 WtCom= 1.00D+00 WtEn= 0.00D+00
 Coeff-Com: -0.122D-01 0.191D+00 0.220D+00 0.601D+00
 Coeff:     -0.122D-01 0.191D+00 0.220D+00 0.601D+00
 Gap=     0.159 Goal=   None    Shift=    0.000
 RMSDP=9.65D-06 MaxDP=4.51D-04 DE=-1.57D-05 OVMax= 3.90D-04

 Cycle   5  Pass 1  IDiag  1:
 RMSU=  5.75D-06    CP:  1.01D+00  9.85D-01  5.52D-01  9.17D-01
 E= -554.848825782505     Delta-E=       -0.000000590337 Rises=F Damp=F
 DIIS: error= 2.41D-05 at cycle   5 NSaved=   5.
 NSaved= 5 IEnMin= 5 EnMin= -554.848825782505     IErMin= 5 ErrMin= 2.41D-05
 ErrMax= 2.41D-05 EMaxC= 1.00D-01 BMatC= 3.09D-07 BMatP= 1.10D-06
 IDIUse=1 WtCom= 1.00D+00 WtEn= 0.00D+00
 Coeff-Com: -0.334D-02 0.379D-01 0.890D-01 0.409D+00 0.467D+00
 Coeff:     -0.334D-02 0.379D-01 0.890D-01 0.409D+00 0.467D+00
 Gap=     0.159 Goal=   None    Shift=    0.000
 RMSDP=7.42D-06 MaxDP=5.98D-04 DE=-5.90D-07 OVMax= 1.41D-04

 Cycle   6  Pass 1  IDiag  1:
 RMSU=  3.55D-06    CP:  1.01D+00  9.82D-01  5.82D-01  9.15D-01  7.63D-01
 E= -554.848826010065     Delta-E=       -0.000000227560 Rises=F Damp=F
 DIIS: error= 2.82D-06 at cycle   6 NSaved=   6.
 NSaved= 6 IEnMin= 6 EnMin= -554.848826010065     IErMin= 6 ErrMin= 2.82D-06
 ErrMax= 2.82D-06 EMaxC= 1.00D-01 BMatC= 5.31D-09 BMatP= 3.09D-07
 IDIUse=1 WtCom= 1.00D+00 WtEn= 0.00D+00
 Coeff-Com: -0.188D-03-0.522D-02 0.132D-01 0.105D+00 0.172D+00 0.715D+00
 Coeff:     -0.188D-03-0.522D-02 0.132D-01 0.105D+00 0.172D+00 0.715D+00
 Gap=     0.159 Goal=   None    Shift=    0.000
