 Entering Link 1 = c:\G09w05\l1.exe PID=      7976.
  
 Copyright (c) 1988,1990,1992,1993,1995,1998,2003,2009,2010,
            Gaussian, Inc.  All Rights Reserved.
  
 This is part of the Gaussian(R) 09 program.  It is based on
 the Gaussian(R) 03 system (copyright 2003, Gaussian, Inc.),
 the Gaussian(R) 98 system (copyright 1998, Gaussian, Inc.),
 the Gaussian(R) 94 system (copyright 1995, Gaussian, Inc.),
 the Gaussian 92(TM) system (copyright 1992, Gaussian, Inc.),
 the Gaussian 90(TM) system (copyright 1990, Gaussian, Inc.),
 the Gaussian 88(TM) system (copyright 1988, Gaussian, Inc.),
 the Gaussian 86(TM) system (copyright 1986, Carnegie Mellon
 University), and the Gaussian 82(TM) system (copyright 1983,
 Carnegie Mellon University). Gaussian is a federally registered
 trademark of Gaussian, Inc.
  
 This software contains proprietary and confidential information,
 including trade secrets, belonging to Gaussian, Inc.
  
 This software is provided under written license and may be
 used, copied, transmitted, or stored only in accord with that
 written license.
  
 The following legend is applicable only to US Government
 contracts under FAR:
  
                    RESTRICTED RIGHTS LEGEND
  
 Use, reproduction and disclosure by the US Government is
 subject to restrictions as set forth in subparagraphs (a)
 and (c) of the Commercial Computer Software - Restricted
 Rights clause in FAR 52.227-19.
  
 Gaussian, Inc.
 340 Quinnipiac St., Bldg. 40, Wallingford CT 06492
  
  
 ---------------------------------------------------------------
 Warning -- This program may not be used in any manner that
 competes with the business of Gaussian, Inc. or will provide
 assistance to any competitor of Gaussian, Inc.  The licensee
 of this program is prohibited from giving any competitor of
 Gaussian, Inc. access to this program.  By using this program,
 the user acknowledges that Gaussian, Inc. is engaged in the
 business of creating and licensing software in the field of
 computational chemistry and represents and warrants to the
 licensee that it is not a competitor of Gaussian, Inc. and that
 it will not use this program in any manner prohibited above.
 ---------------------------------------------------------------
  

 Cite this work as:
 Gaussian 09, Revision B.01,
 M. J. Frisch, G. W. Trucks, H. B. Schlegel, G. E. Scuseria, 
 M. A. Robb, J. R. Cheeseman, G. Scalmani, V. Barone, B. Mennucci, 
 G. A. Petersson, H. Nakatsuji, M. Caricato, X. Li, H. P. Hratchian, 
 A. F. Izmaylov, J. Bloino, G. Zheng, J. L. Sonnenberg, M. Hada, 
 M. Ehara, K. Toyota, R. Fukuda, J. Hasegawa, M. Ishida, T. Nakajima, 
 Y. Honda, O. Kitao, H. Nakai, T. Vreven, J. A. Montgomery, Jr., 
 J. E. Peralta, F. Ogliaro, M. Bearpark, J. J. Heyd, E. Brothers, 
 K. N. Kudin, V. N. Staroverov, T. Keith, R. Kobayashi, J. Normand, 
 K. Raghavachari, A. Rendell, J. C. Burant, S. S. Iyengar, J. Tomasi, 
 M. Cossi, N. Rega, J. M. Millam, M. Klene, J. E. Knox, J. B. Cross, 
 V. Bakken, C. Adamo, J. Jaramillo, R. Gomperts, R. E. Stratmann, 
 O. Yazyev, A. J. Austin, R. Cammi, C. Pomelli, J. W. Ochterski, 
 R. L. Martin, K. Morokuma, V. G. Zakrzewski, G. A. Voth, 
 P. Salvador, J. J. Dannenberg, S. Dapprich, A. D. Daniels, 
 O. Farkas, J. B. Foresman, J. V. Ortiz, J. Cioslowski, 
 and D. J. Fox, Gaussian, Inc., Wallingford CT, 2010.
 
 ******************************************
 Gaussian 09:  IA32W-G09RevB.01 12-Aug-2010
                16-Apr-2016 
 ******************************************
 %chk=Ser-S-opt-freq-cpcm-w-tsa2-6-311++gdp.chk
 ----------------------------------------------------------------------
 #p opt=(calcfc,ts) freq rb3lyp/6-311++g(d,p) scrf=(cpcm,solvent=water)
  iop(1/11=1) nosymm
 ----------------------------------------------------------------------
 1/5=1,10=4,11=1,14=-1,18=20,26=3,38=1/1,3;
 2/9=110,12=2,15=1,17=6,18=5,40=1/2;
 3/5=4,6=6,7=1111,11=2,16=1,25=1,30=1,70=2101,71=2,72=1,74=-5,116=1/1,2,3;
 4//1;
 5/5=2,38=5,53=1/2;
 8/6=4,10=90,11=11/1;
 11/6=1,8=1,9=11,15=111,16=1,31=1/1,2,10;
 10/6=1,7=6,13=1,31=1/2;
 6/7=2,8=2,9=2,10=2,28=1/1;
 7/10=1,18=20,25=1,30=1/1,2,3,16;
 1/5=1,10=4,11=1,14=-1,18=20/3(2);
 2/9=110,15=1/2;
 99//99;
 2/9=110,15=1/2;
 3/5=4,6=6,7=1111,11=2,16=1,25=1,30=1,70=2105,71=1,72=1,74=-5,116=1/1,2,3;
 4/5=5,16=3/1;
 5/5=2,38=5,53=1/2;
 7/30=1/1,2,3,16;
 1/5=1,11=1,14=-1,18=20/3(-5);
 2/9=110,15=1/2;
 6/7=2,8=2,9=2,10=2,19=2,28=1/1;
 99/9=1/99;
 Leave Link    1 at Sat Apr 16 01:14:14 2016, MaxMem=          0 cpu:       0.0
 (Enter c:\G09w05\l101.exe)
 -------------------------------------
 Ser-S-opt-freq-cpcm-w-tsa2-6-311++gdp
 -------------------------------------
 Symbolic Z-matrix:
 Charge =  0 Multiplicity = 1
 N                    -0.09483   2.02052  -0.01594 
 H                    -0.3608    2.11521   0.95981 
 C                     0.16136   0.61994  -0.35638 
 H                    -0.2886   -0.4068   -1.48607 
 C                     1.45158   0.16636   0.32837 
 C                    -1.00003  -0.31493  -0.01207 
 H                     2.27049   0.79347  -0.03723 
 H                     1.36286   0.30109   1.41221 
 O                     1.66486  -1.20882   0.00376 
 O                    -1.28362  -0.30695   1.30586 
 H                     2.43367  -1.52504   0.48984 
 H                    -0.85402   2.39544  -0.57517 
 O                    -1.62685  -0.97014  -0.81395 
 H                    -2.04368  -0.88891   1.46515 
 
 NAtoms=     14 NQM=     14 NQMF=      0 NMic=      0 NMicF=      0 NTot=     14.
 Add atom      4 valence  3 ND=      2 dihedral       3      4      6     13
                    Isotopes and Nuclear Properties:
 (Nuclear quadrupole moments (NQMom) in fm**2, nuclear magnetic moments (NMagM)
  in nuclear magnetons)

  Atom         1           2           3           4           5           6           7           8           9          10
 IAtWgt=          14           1          12           1          12          12           1           1          16          16
 AtmWgt=  14.0030740   1.0078250  12.0000000   1.0078250  12.0000000  12.0000000   1.0078250   1.0078250  15.9949146  15.9949146
 NucSpn=           2           1           0           1           0           0           1           1           0           0
 AtZEff=   0.0000000   0.0000000   0.0000000   0.0000000   0.0000000   0.0000000   0.0000000   0.0000000   0.0000000   0.0000000
 NQMom=    2.0440000   0.0000000   0.0000000   0.0000000   0.0000000   0.0000000   0.0000000   0.0000000   0.0000000   0.0000000
 NMagM=    0.4037610   2.7928460   0.0000000   2.7928460   0.0000000   0.0000000   2.7928460   2.7928460   0.0000000   0.0000000

  Atom        11          12          13          14
 IAtWgt=           1           1          16           1
 AtmWgt=   1.0078250   1.0078250  15.9949146   1.0078250
 NucSpn=           1           1           0           1
 AtZEff=   0.0000000   0.0000000   0.0000000   0.0000000
 NQMom=    0.0000000   0.0000000   0.0000000   0.0000000
 NMagM=    2.7928460   2.7928460   0.0000000   2.7928460
 Leave Link  101 at Sat Apr 16 01:14:14 2016, MaxMem=   33554432 cpu:       0.0
 (Enter c:\G09w05\l103.exe)

 GradGradGradGradGradGradGradGradGradGradGradGradGradGradGradGradGradGrad
 Berny optimization.
 Initialization pass.
                           ----------------------------
                           !    Initial Parameters    !
                           ! (Angstroms and Degrees)  !
 --------------------------                            --------------------------
 ! Name  Definition              Value          Derivative Info.                !
 --------------------------------------------------------------------------------
 ! R1    R(1,2)                  1.0158         calculate D2E/DX2 analytically  !
 ! R2    R(1,3)                  1.4639         calculate D2E/DX2 analytically  !
 ! R3    R(1,12)                 1.0147         calculate D2E/DX2 analytically  !
 ! R4    R(3,4)                  1.5915         calculate D2E/DX2 analytically  !
 ! R5    R(3,5)                  1.5295         calculate D2E/DX2 analytically  !
 ! R6    R(3,6)                  1.5302         calculate D2E/DX2 analytically  !
 ! R7    R(4,6)                  1.6393         calculate D2E/DX2 analytically  !
 ! R8    R(4,13)                 1.6            calculate D2E/DX2 analytically  !
 ! R9    R(5,7)                  1.0943         calculate D2E/DX2 analytically  !
 ! R10   R(5,8)                  1.0958         calculate D2E/DX2 analytically  !
 ! R11   R(5,9)                  1.429          calculate D2E/DX2 analytically  !
 ! R12   R(6,10)                 1.3481         calculate D2E/DX2 analytically  !
 ! R13   R(6,13)                 1.2105         calculate D2E/DX2 analytically  !
 ! R14   R(9,11)                 0.963          calculate D2E/DX2 analytically  !
 ! R15   R(10,14)                0.9704         calculate D2E/DX2 analytically  !
 ! A1    A(2,1,3)              111.002          calculate D2E/DX2 analytically  !
 ! A2    A(2,1,12)             107.4006         calculate D2E/DX2 analytically  !
 ! A3    A(3,1,12)             110.8698         calculate D2E/DX2 analytically  !
 ! A4    A(1,3,4)              137.1225         calculate D2E/DX2 analytically  !
 ! A5    A(1,3,5)              109.1011         calculate D2E/DX2 analytically  !
 ! A6    A(1,3,6)              113.5387         calculate D2E/DX2 analytically  !
 ! A7    A(4,3,5)              111.4055         calculate D2E/DX2 analytically  !
 ! A8    A(5,3,6)              110.9982         calculate D2E/DX2 analytically  !
 ! A9    A(3,4,13)              99.5229         calculate D2E/DX2 analytically  !
 ! A10   A(3,5,7)              108.1643         calculate D2E/DX2 analytically  !
 ! A11   A(3,5,8)              109.7588         calculate D2E/DX2 analytically  !
 ! A12   A(3,5,9)              108.0356         calculate D2E/DX2 analytically  !
 ! A13   A(7,5,8)              108.6975         calculate D2E/DX2 analytically  !
 ! A14   A(7,5,9)              111.3398         calculate D2E/DX2 analytically  !
 ! A15   A(8,5,9)              110.7997         calculate D2E/DX2 analytically  !
 ! A16   A(3,6,10)             112.0875         calculate D2E/DX2 analytically  !
 ! A17   A(3,6,13)             125.0774         calculate D2E/DX2 analytically  !
 ! A18   A(4,6,10)             166.0872         calculate D2E/DX2 analytically  !
 ! A19   A(10,6,13)            122.8132         calculate D2E/DX2 analytically  !
 ! A20   A(5,9,11)             108.694          calculate D2E/DX2 analytically  !
 ! A21   A(6,10,14)            108.7638         calculate D2E/DX2 analytically  !
 ! D1    D(2,1,3,4)            129.649          calculate D2E/DX2 analytically  !
 ! D2    D(2,1,3,5)            -70.2008         calculate D2E/DX2 analytically  !
 ! D3    D(2,1,3,6)             54.1661         calculate D2E/DX2 analytically  !
 ! D4    D(12,1,3,4)            10.3617         calculate D2E/DX2 analytically  !
 ! D5    D(12,1,3,5)           170.5118         calculate D2E/DX2 analytically  !
 ! D6    D(12,1,3,6)           -65.1213         calculate D2E/DX2 analytically  !
 ! D7    D(1,3,4,13)           -87.5701         calculate D2E/DX2 analytically  !
 ! D8    D(5,3,4,13)           112.5894         calculate D2E/DX2 analytically  !
 ! D9    D(1,3,5,7)            -60.5371         calculate D2E/DX2 analytically  !
 ! D10   D(1,3,5,8)             57.9099         calculate D2E/DX2 analytically  !
 ! D11   D(1,3,5,9)            178.8255         calculate D2E/DX2 analytically  !
 ! D12   D(4,3,5,7)            105.094          calculate D2E/DX2 analytically  !
 ! D13   D(4,3,5,8)           -136.459          calculate D2E/DX2 analytically  !
 ! D14   D(4,3,5,9)            -15.5434         calculate D2E/DX2 analytically  !
 ! D15   D(6,3,5,7)            173.616          calculate D2E/DX2 analytically  !
 ! D16   D(6,3,5,8)            -67.937          calculate D2E/DX2 analytically  !
 ! D17   D(6,3,5,9)             52.9786         calculate D2E/DX2 analytically  !
 ! D18   D(1,3,6,10)           -60.37           calculate D2E/DX2 analytically  !
 ! D19   D(1,3,6,13)           117.9609         calculate D2E/DX2 analytically  !
 ! D20   D(5,3,6,10)            62.9646         calculate D2E/DX2 analytically  !
 ! D21   D(5,3,6,13)          -118.7045         calculate D2E/DX2 analytically  !
 ! D22   D(3,4,6,13)           167.0335         calculate D2E/DX2 analytically  !
 ! D23   D(3,5,9,11)          -175.2526         calculate D2E/DX2 analytically  !
 ! D24   D(7,5,9,11)            66.1146         calculate D2E/DX2 analytically  !
 ! D25   D(8,5,9,11)           -54.9876         calculate D2E/DX2 analytically  !
 ! D26   D(3,6,10,14)          178.0128         calculate D2E/DX2 analytically  !
 ! D27   D(4,6,10,14)         -128.4785         calculate D2E/DX2 analytically  !
 ! D28   D(13,6,10,14)          -0.3619         calculate D2E/DX2 analytically  !
 --------------------------------------------------------------------------------
 Trust Radius=3.00D-01 FncErr=1.00D-07 GrdErr=1.00D-06
 Number of steps in this run=     74 maximum allowed number of steps=    100.
 Search for a saddle point of order  1.
 GradGradGradGradGradGradGradGradGradGradGradGradGradGradGradGradGradGrad

 Leave Link  103 at Sat Apr 16 01:14:15 2016, MaxMem=   33554432 cpu:       0.0
 (Enter c:\G09w05\l202.exe)
                          Input orientation:                          
 ---------------------------------------------------------------------
 Center     Atomic      Atomic             Coordinates (Angstroms)
 Number     Number       Type             X           Y           Z
 ---------------------------------------------------------------------
      1          7           0       -0.094826    2.020519   -0.015935
      2          1           0       -0.360802    2.115214    0.959814
      3          6           0        0.161361    0.619945   -0.356380
      4          1           0       -0.288603   -0.406800   -1.486070
      5          6           0        1.451576    0.166356    0.328369
      6          6           0       -1.000033   -0.314933   -0.012069
      7          1           0        2.270492    0.793473   -0.037232
      8          1           0        1.362857    0.301089    1.412208
      9          8           0        1.664861   -1.208815    0.003757
     10          8           0       -1.283621   -0.306949    1.305861
     11          1           0        2.433667   -1.525039    0.489837
     12          1           0       -0.854020    2.395438   -0.575172
     13          8           0       -1.626850   -0.970138   -0.813951
     14          1           0       -2.043682   -0.888914    1.465147
 ---------------------------------------------------------------------
                    Distance matrix (angstroms):
                    1          2          3          4          5
     1  N    0.000000
     2  H    1.015774   0.000000
     3  C    1.463947   2.059332   0.000000
     4  H    2.844419   3.513988   1.591499   0.000000
     5  C    2.438816   2.735230   1.529470   2.578549   0.000000
     6  C    2.504746   2.694214   1.530158   1.639284   2.521492
     7  H    2.664737   3.108827   2.140187   3.176279   1.094332
     8  H    2.668496   2.542973   2.161751   3.410050   1.095779
     9  O    3.677701   4.008307   2.394697   2.584344   1.428971
    10  O    2.928734   2.614998   2.389592   2.965621   2.942926
    11  H    4.384069   4.613174   3.237347   3.544773   1.962496
    12  H    1.014734   1.636451   2.056999   3.000328   3.331811
    13  O    3.453687   3.777369   2.436275   1.600000   3.474654
    14  H    3.802163   3.480263   3.233702   3.467336   3.823962
                    6          7          8          9         10
     6  C    0.000000
     7  H    3.453336   0.000000
     8  H    2.826888   1.779640   0.000000
     9  O    2.810860   2.092278   2.086804   0.000000
    10  O    1.348119   3.955572   2.717511   3.346996   0.000000
    11  H    3.675127   2.383259   2.309144   0.962982   3.995982
    12  H    2.772096   3.552217   3.640126   4.435151   3.320503
    13  O    1.210458   4.347745   3.938293   3.400143   2.247494
    14  H    1.897584   4.868230   3.608797   3.998911   0.970437
                   11         12         13         14
    11  H    0.000000
    12  H    5.226210   0.000000
    13  O    4.300648   3.461414   0.000000
    14  H    4.626288   4.045388   2.318326   0.000000
 Symmetry turned off by external request.
 Stoichiometry    C3H7NO3
 Framework group  C1[X(C3H7NO3)]
 Deg. of freedom    36
 Full point group                 C1      NOp   1
 Rotational constants (GHZ):      3.0603693      2.3468356      1.7708554
 Leave Link  202 at Sat Apr 16 01:14:15 2016, MaxMem=   33554432 cpu:       0.0
 (Enter c:\G09w05\l301.exe)
 Standard basis: 6-311++G(d,p) (5D, 7F)
 Ernie: Thresh=  0.10000D-02 Tol=  0.10000D-05 Strict=F.
 Integral buffers will be    262144 words long.
 Raffenetti 2 integral format.
 Two-electron integral symmetry is turned off.
   203 basis functions,   315 primitive gaussians,   210 cartesian basis functions
    28 alpha electrons       28 beta electrons
       nuclear repulsion energy       324.3392370353 Hartrees.
 IExCor=  402 DFT=T Ex+Corr=B3LYP ExCW=0 ScaHFX=  0.200000
 ScaDFX=  0.800000  0.720000  1.000000  0.810000 ScalE2=  1.000000  1.000000
 IRadAn=      0 IRanWt=     -1 IRanGd=            0 ICorTp=0
 NAtoms=   14 NActive=   14 NUniq=   14 SFac= 1.00D+00 NAtFMM=   50 NAOKFM=F Big=F
 ------------------------------------------------------------------------------
 Polarizable Continuum Model (PCM)
 =================================
 Model                : C-PCM.
 Atomic radii         : UFF (Universal Force Field).
 Polarization charges : Total charges.
 Charge compensation  : None.
 Solution method      : Matrix inversion.
 Cavity type          : Scaled VdW (van der Waals Surface) (Alpha=1.100).
 Cavity algorithm     : GePol (No added spheres)
                        Default sphere list used, NSphG=   14.
                        Lebedev-Laikov grids with approx.  5.0 points / Ang**2.
                        Smoothing algorithm: Karplus/York (Gamma=1.0000).
                        Polarization charges: spherical gaussians, with
                                              point-specific exponents (IZeta= 3).
                        Self-potential: point-specific (ISelfS= 7).
                        Self-field    : sphere-specific E.n sum rule (ISelfD= 2).
 1st derivatives      : Analytical E(r).r(x)/FMM algorithm (CHGder, D1EAlg=3).
                        Cavity 1st derivative terms included.
 2nd derivatives      : Analytical E(r).r(xy)/FMM algorithm (CHGder, D2EAlg=3).
                        Cavity 2nd derivative terms included.
 Solvent              : Water, Eps=  78.355300 Eps(inf)=   1.777849
 ------------------------------------------------------------------------------
 Spheres list:
 ISph  on   Nord    Re0     Alpha      Xe            Ye            Ze
    1   N      1    1.830   1.100     -0.094826      2.020519     -0.015935
    2   H      2    1.443   1.100     -0.360802      2.115214      0.959814
    3   C      3    1.926   1.100      0.161361      0.619945     -0.356380
    4   H      4    1.443   1.100     -0.288603     -0.406800     -1.486070
    5   C      5    1.926   1.100      1.451576      0.166356      0.328369
    6   C      6    1.926   1.100     -1.000033     -0.314933     -0.012069
    7   H      7    1.443   1.100      2.270492      0.793473     -0.037232
    8   H      8    1.443   1.100      1.362857      0.301089      1.412208
    9   O      9    1.750   1.100      1.664861     -1.208815      0.003757
   10   O     10    1.750   1.100     -1.283621     -0.306949      1.305861
   11   H     11    1.443   1.100      2.433667     -1.525039      0.489837
   12   H     12    1.443   1.100     -0.854020      2.395438     -0.575172
   13   O     13    1.750   1.100     -1.626850     -0.970138     -0.813951
   14   H     14    1.443   1.100     -2.043682     -0.888914      1.465147
 ------------------------------------------------------------------------------
 GePol: Number of generator spheres                  =      14
 GePol: Total number of spheres                      =      14
 GePol: Number of exposed spheres                    =      14 (100.00%)
 GePol: Number of points                             =    1184
 GePol: Average weight of points                     =       0.14
 GePol: Minimum weight of points                     =   0.19D-08
 GePol: Maximum weight of points                     =    0.20577
 GePol: Number of points with low weight             =      62
 GePol: Fraction of low-weight points (<1% of avg)   =       5.24%
 GePol: Cavity surface area                          =    162.542 Ang**2
 GePol: Cavity volume                                =    152.326 Ang**3
 Leave Link  301 at Sat Apr 16 01:14:17 2016, MaxMem=   33554432 cpu:       1.0
 (Enter c:\G09w05\l302.exe)
 NPDir=0 NMtPBC=     1 NCelOv=     1 NCel=       1 NClECP=     1 NCelD=      1
         NCelK=      1 NCelE2=     1 NClLst=     1 CellRange=     0.0.
 One-electron integrals computed using PRISM.
 NBasis=   203 RedAO= T  NBF=   203
 NBsUse=   203 1.00D-06 NBFU=   203
 Precomputing XC quadrature grid using
 IXCGrd= 2 IRadAn=           0 IRanWt=          -1 IRanGd=           0 AccXCQ= 0.00D+00.
 NRdTot=     907 NPtTot=      115396 NUsed=      119630 NTot=      119646
 NSgBfM=   210   210   210   210   210 NAtAll=    14    14.
 Leave Link  302 at Sat Apr 16 01:14:18 2016, MaxMem=   33554432 cpu:       1.0
 (Enter c:\G09w05\l303.exe)
 DipDrv:  MaxL=1.
 Leave Link  303 at Sat Apr 16 01:14:19 2016, MaxMem=   33554432 cpu:       0.0
 (Enter c:\G09w05\l401.exe)
 Harris functional with IExCor=  402 diagonalized for initial guess.
 ExpMin= 3.60D-02 ExpMax= 8.59D+03 ExpMxC= 1.30D+03 IAcc=3 IRadAn=         0 AccDes= 0.00D+00
 HarFok:  IExCor=  402 AccDes= 0.00D+00 IRadAn=         0 IDoV= 1
 ScaDFX=  1.000000  1.000000  1.000000  1.000000
 FoFCou: FMM=F IPFlag=           0 FMFlag=      100000 FMFlg1=           0
         NFxFlg=           0 DoJE=T BraDBF=F KetDBF=T FulRan=T
         Omega=  0.000000  0.000000  1.000000  0.000000  0.000000 ICntrl=     500 IOpCl=  0
         NMat0=    1 NMatS0=    1 NMatT0=    0 NMatD0=    1 NMtDS0=    0 NMtDT0=    0
         I1Cent=           4 NGrid=           0.
 Symmetry not used in FoFCou.
 Harris En= -398.969436180903    
 Leave Link  401 at Sat Apr 16 01:14:26 2016, MaxMem=   33554432 cpu:       7.0
 (Enter c:\G09w05\l502.exe)
 Closed shell SCF:
 Requested convergence on RMS density matrix=1.00D-08 within 128 cycles.
 Requested convergence on MAX density matrix=1.00D-06.
 Requested convergence on             energy=1.00D-06.
 No special actions if energy rises.
 Using DIIS extrapolation, IDIIS=  1040.
 Two-electron integral symmetry not used.
       119506 words used for storage of precomputed grid.
 IEnd=      272371 IEndB=      272371 NGot=    33554432 MDV=    33343012
 LenX=    33343012 LenY=    33298471
 Fock matrices will be formed incrementally for  20 cycles.

 Cycle   1  Pass 1  IDiag  1:
 FoFCou: FMM=F IPFlag=           0 FMFlag=      100000 FMFlg1=           0
         NFxFlg=           0 DoJE=F BraDBF=F KetDBF=F FulRan=T
         Omega=  0.000000  0.000000  1.000000  0.000000  0.000000 ICntrl=       0 IOpCl=  0
         NMat0=    1 NMatS0=    1 NMatT0=    0 NMatD0=    1 NMtDS0=    0 NMtDT0=    0
         I1Cent=           0 NGrid=           0.
 Symmetry not used in FoFCou.
 E= -398.782519695243    
 DIIS: error= 2.47D-02 at cycle   1 NSaved=   1.
 NSaved= 1 IEnMin= 1 EnMin= -398.782519695243     IErMin= 1 ErrMin= 2.47D-02
 ErrMax= 2.47D-02 EMaxC= 1.00D-01 BMatC= 2.74D-01 BMatP= 2.74D-01
 IDIUse=3 WtCom= 7.53D-01 WtEn= 2.47D-01
 Coeff-Com:  0.100D+01
 Coeff-En:   0.100D+01
 Coeff:      0.100D+01
 Gap=     0.199 Goal=   None    Shift=    0.000
 GapD=    0.199 DampG=1.000 DampE=0.500 DampFc=0.5000 IDamp=-1.
 Damping current iteration by 5.00D-01
 RMSDP=1.34D-02 MaxDP=1.25D+00              OVMax= 2.23D-01

 Cycle   2  Pass 1  IDiag  1:
 RMSU=  4.02D-03    CP:  1.13D+00
 E= -398.838559048154     Delta-E=       -0.056039352910 Rises=F Damp=T
 DIIS: error= 7.62D-03 at cycle   2 NSaved=   2.
 NSaved= 2 IEnMin= 2 EnMin= -398.838559048154     IErMin= 2 ErrMin= 7.62D-03
 ErrMax= 7.62D-03 EMaxC= 1.00D-01 BMatC= 2.59D-02 BMatP= 2.74D-01
 IDIUse=3 WtCom= 9.24D-01 WtEn= 7.62D-02
 Coeff-Com:  0.191D+00 0.809D+00
 Coeff-En:   0.343D+00 0.657D+00
 Coeff:      0.202D+00 0.798D+00
 Gap=     0.249 Goal=   None    Shift=    0.000
 RMSDP=9.44D-03 MaxDP=1.27D+00 DE=-5.60D-02 OVMax= 1.32D-01

 Cycle   3  Pass 1  IDiag  1:
 RMSU=  2.77D-03    CP:  8.53D-01  3.26D-01
 E= -398.973524977049     Delta-E=       -0.134965928895 Rises=F Damp=F
 DIIS: error= 4.74D-03 at cycle   3 NSaved=   3.
 NSaved= 3 IEnMin= 3 EnMin= -398.973524977049     IErMin= 3 ErrMin= 4.74D-03
 ErrMax= 4.74D-03 EMaxC= 1.00D-01 BMatC= 4.96D-03 BMatP= 2.59D-02
 IDIUse=3 WtCom= 9.53D-01 WtEn= 4.74D-02
 Coeff-Com:  0.282D-01 0.304D+00 0.668D+00
 Coeff-En:   0.000D+00 0.000D+00 0.100D+01
 Coeff:      0.269D-01 0.290D+00 0.683D+00
 Gap=     0.217 Goal=   None    Shift=    0.000
 RMSDP=6.08D-04 MaxDP=2.36D-02 DE=-1.35D-01 OVMax= 2.35D-02

 Cycle   4  Pass 1  IDiag  1:
 RMSU=  4.18D-04    CP:  8.57D-01  3.42D-01  9.96D-01
 E= -398.974908607181     Delta-E=       -0.001383630132 Rises=F Damp=F
 DIIS: error= 3.54D-03 at cycle   4 NSaved=   4.
 NSaved= 4 IEnMin= 4 EnMin= -398.974908607181     IErMin= 4 ErrMin= 3.54D-03
 ErrMax= 3.54D-03 EMaxC= 1.00D-01 BMatC= 3.13D-03 BMatP= 4.96D-03
 IDIUse=3 WtCom= 9.65D-01 WtEn= 3.54D-02
 Coeff-Com: -0.260D-02 0.106D+00 0.464D+00 0.433D+00
 Coeff-En:   0.000D+00 0.000D+00 0.405D+00 0.595D+00
 Coeff:     -0.250D-02 0.102D+00 0.462D+00 0.439D+00
 Gap=     0.213 Goal=   None    Shift=    0.000
 RMSDP=5.99D-04 MaxDP=6.66D-02 DE=-1.38D-03 OVMax= 1.56D-02

 Cycle   5  Pass 1  IDiag  1:
 RMSU=  1.62D-04    CP:  8.42D-01  3.38D-01  1.05D+00  5.18D-01
 E= -398.977280367386     Delta-E=       -0.002371760205 Rises=F Damp=F
 DIIS: error= 8.54D-04 at cycle   5 NSaved=   5.
 NSaved= 5 IEnMin= 5 EnMin= -398.977280367386     IErMin= 5 ErrMin= 8.54D-04
 ErrMax= 8.54D-04 EMaxC= 1.00D-01 BMatC= 2.33D-04 BMatP= 3.13D-03
 IDIUse=3 WtCom= 9.91D-01 WtEn= 8.54D-03
 Coeff-Com: -0.437D-02 0.292D-01 0.206D+00 0.269D+00 0.500D+00
 Coeff-En:   0.000D+00 0.000D+00 0.000D+00 0.837D-02 0.992D+00
 Coeff:     -0.433D-02 0.289D-01 0.204D+00 0.267D+00 0.505D+00
 Gap=     0.215 Goal=   None    Shift=    0.000
 RMSDP=1.10D-04 MaxDP=9.06D-03 DE=-2.37D-03 OVMax= 4.02D-03

 Cycle   6  Pass 1  IDiag  1:
 RMSU=  5.31D-05    CP:  8.39D-01  3.37D-01  1.06D+00  5.51D-01  8.93D-01
 E= -398.977458005866     Delta-E=       -0.000177638480 Rises=F Damp=F
 DIIS: error= 1.38D-04 at cycle   6 NSaved=   6.
 NSaved= 6 IEnMin= 6 EnMin= -398.977458005866     IErMin= 6 ErrMin= 1.38D-04
 ErrMax= 1.38D-04 EMaxC= 1.00D-01 BMatC= 1.05D-05 BMatP= 2.33D-04
 IDIUse=3 WtCom= 9.99D-01 WtEn= 1.38D-03
 Coeff-Com: -0.158D-02 0.134D-02 0.453D-01 0.784D-01 0.236D+00 0.641D+00
 Coeff-En:   0.000D+00 0.000D+00 0.000D+00 0.000D+00 0.000D+00 0.100D+01
 Coeff:     -0.158D-02 0.134D-02 0.453D-01 0.783D-01 0.235D+00 0.641D+00
 Gap=     0.215 Goal=   None    Shift=    0.000
 RMSDP=3.23D-05 MaxDP=2.38D-03 DE=-1.78D-04 OVMax= 5.44D-04

 Cycle   7  Pass 1  IDiag  1:
 RMSU=  1.44D-05    CP:  8.40D-01  3.38D-01  1.06D+00  5.69D-01  8.77D-01
                    CP:  7.91D-01
 E= -398.977465804143     Delta-E=       -0.000007798277 Rises=F Damp=F
 DIIS: error= 3.36D-05 at cycle   7 NSaved=   7.
 NSaved= 7 IEnMin= 7 EnMin= -398.977465804143     IErMin= 7 ErrMin= 3.36D-05
 ErrMax= 3.36D-05 EMaxC= 1.00D-01 BMatC= 4.59D-07 BMatP= 1.05D-05
 IDIUse=1 WtCom= 1.00D+00 WtEn= 0.00D+00
 Coeff-Com: -0.415D-03-0.155D-03 0.148D-01 0.284D-01 0.919D-01 0.288D+00
 Coeff-Com:  0.577D+00
 Coeff:     -0.415D-03-0.155D-03 0.148D-01 0.284D-01 0.919D-01 0.288D+00
 Coeff:      0.577D+00
 Gap=     0.215 Goal=   None    Shift=    0.000
 RMSDP=1.42D-05 MaxDP=1.62D-03 DE=-7.80D-06 OVMax= 3.05D-04

 Cycle   8  Pass 1  IDiag  1:
 RMSU=  4.40D-06    CP:  8.40D-01  3.37D-01  1.06D+00  5.70D-01  8.92D-01
                    CP:  8.01D-01  9.33D-01
 E= -398.977466130474     Delta-E=       -0.000000326331 Rises=F Damp=F
 DIIS: error= 1.68D-05 at cycle   8 NSaved=   8.
 NSaved= 8 IEnMin= 8 EnMin= -398.977466130474     IErMin= 8 ErrMin= 1.68D-05
 ErrMax= 1.68D-05 EMaxC= 1.00D-01 BMatC= 9.05D-08 BMatP= 4.59D-07
 IDIUse=1 WtCom= 1.00D+00 WtEn= 0.00D+00
 Coeff-Com:  0.976D-04-0.471D-03-0.507D-03 0.118D-02 0.479D-02 0.311D-01
 Coeff-Com:  0.318D+00 0.646D+00
 Coeff:      0.976D-04-0.471D-03-0.507D-03 0.118D-02 0.479D-02 0.311D-01
 Coeff:      0.318D+00 0.646D+00
 Gap=     0.215 Goal=   None    Shift=    0.000
 RMSDP=4.21D-06 MaxDP=1.78D-04 DE=-3.26D-07 OVMax= 8.59D-05

 Cycle   9  Pass 1  IDiag  1:
 RMSU=  1.55D-06    CP:  8.40D-01  3.38D-01  1.06D+00  5.72D-01  8.95D-01
                    CP:  8.16D-01  1.04D+00  9.12D-01
 E= -398.977466208226     Delta-E=       -0.000000077753 Rises=F Damp=F
 DIIS: error= 3.42D-06 at cycle   9 NSaved=   9.
 NSaved= 9 IEnMin= 9 EnMin= -398.977466208226     IErMin= 9 ErrMin= 3.42D-06
 ErrMax= 3.42D-06 EMaxC= 1.00D-01 BMatC= 4.82D-09 BMatP= 9.05D-08
 IDIUse=1 WtCom= 1.00D+00 WtEn= 0.00D+00
 Coeff-Com:  0.637D-04-0.225D-03-0.942D-03-0.715D-03-0.220D-02 0.532D-04
 Coeff-Com:  0.131D+00 0.298D+00 0.575D+00
 Coeff:      0.637D-04-0.225D-03-0.942D-03-0.715D-03-0.220D-02 0.532D-04
 Coeff:      0.131D+00 0.298D+00 0.575D+00
 Gap=     0.215 Goal=   None    Shift=    0.000
 RMSDP=8.16D-07 MaxDP=4.46D-05 DE=-7.78D-08 OVMax= 1.85D-05

 Cycle  10  Pass 1  IDiag  1:
 RMSU=  3.38D-07    CP:  8.40D-01  3.38D-01  1.06D+00  5.72D-01  8.96D-01
                    CP:  8.19D-01  1.04D+00  9.73D-01  8.51D-01
 E= -398.977466212056     Delta-E=       -0.000000003829 Rises=F Damp=F
 DIIS: error= 1.24D-06 at cycle  10 NSaved=  10.
 NSaved=10 IEnMin=10 EnMin= -398.977466212056     IErMin=10 ErrMin= 1.24D-06
 ErrMax= 1.24D-06 EMaxC= 1.00D-01 BMatC= 6.73D-10 BMatP= 4.82D-09
 IDIUse=1 WtCom= 1.00D+00 WtEn= 0.00D+00
 Coeff-Com:  0.170D-04-0.413D-04-0.429D-03-0.551D-03-0.195D-02-0.473D-02
 Coeff-Com:  0.260D-01 0.545D-01 0.282D+00 0.646D+00
 Coeff:      0.170D-04-0.413D-04-0.429D-03-0.551D-03-0.195D-02-0.473D-02
 Coeff:      0.260D-01 0.545D-01 0.282D+00 0.646D+00
 Gap=     0.215 Goal=   None    Shift=    0.000
 RMSDP=4.62D-07 MaxDP=3.91D-05 DE=-3.83D-09 OVMax= 6.66D-06

 Cycle  11  Pass 1  IDiag  1:
 RMSU=  1.14D-07    CP:  8.40D-01  3.38D-01  1.06D+00  5.73D-01  8.96D-01
                    CP:  8.19D-01  1.06D+00  9.77D-01  9.16D-01  8.67D-01
 E= -398.977466212568     Delta-E=       -0.000000000513 Rises=F Damp=F
 DIIS: error= 3.78D-07 at cycle  11 NSaved=  11.
 NSaved=11 IEnMin=11 EnMin= -398.977466212568     IErMin=11 ErrMin= 3.78D-07
 ErrMax= 3.78D-07 EMaxC= 1.00D-01 BMatC= 5.80D-11 BMatP= 6.73D-10
 IDIUse=1 WtCom= 1.00D+00 WtEn= 0.00D+00
 Coeff-Com:  0.880D-06 0.252D-06-0.125D-03-0.202D-03-0.724D-03-0.213D-02
 Coeff-Com:  0.102D-02-0.432D-02 0.738D-01 0.297D+00 0.635D+00
 Coeff:      0.880D-06 0.252D-06-0.125D-03-0.202D-03-0.724D-03-0.213D-02
 Coeff:      0.102D-02-0.432D-02 0.738D-01 0.297D+00 0.635D+00
 Gap=     0.215 Goal=   None    Shift=    0.000
 RMSDP=1.16D-07 MaxDP=3.95D-06 DE=-5.13D-10 OVMax= 1.98D-06

 Cycle  12  Pass 1  IDiag  1:
 RMSU=  3.16D-08    CP:  8.40D-01  3.38D-01  1.06D+00  5.73D-01  8.96D-01
                    CP:  8.19D-01  1.06D+00  9.85D-01  9.26D-01  9.35D-01
                    CP:  9.17D-01
 E= -398.977466212617     Delta-E=       -0.000000000049 Rises=F Damp=F
 DIIS: error= 1.26D-07 at cycle  12 NSaved=  12.
 NSaved=12 IEnMin=12 EnMin= -398.977466212617     IErMin=12 ErrMin= 1.26D-07
 ErrMax= 1.26D-07 EMaxC= 1.00D-01 BMatC= 6.60D-12 BMatP= 5.80D-11
 IDIUse=1 WtCom= 1.00D+00 WtEn= 0.00D+00
 Coeff-Com: -0.176D-05 0.479D-05-0.898D-05-0.287D-04-0.124D-03-0.419D-03
 Coeff-Com: -0.170D-02-0.787D-02 0.551D-02 0.736D-01 0.311D+00 0.620D+00
 Coeff:     -0.176D-05 0.479D-05-0.898D-05-0.287D-04-0.124D-03-0.419D-03
 Coeff:     -0.170D-02-0.787D-02 0.551D-02 0.736D-01 0.311D+00 0.620D+00
 Gap=     0.215 Goal=   None    Shift=    0.000
 RMSDP=3.23D-08 MaxDP=1.66D-06 DE=-4.92D-11 OVMax= 6.85D-07

 Cycle  13  Pass 1  IDiag  1:
 RMSU=  1.06D-08    CP:  8.40D-01  3.38D-01  1.06D+00  5.73D-01  8.96D-01
                    CP:  8.19D-01  1.06D+00  9.86D-01  9.30D-01  9.57D-01
                    CP:  9.16D-01  8.49D-01
 E= -398.977466212619     Delta-E=       -0.000000000001 Rises=F Damp=F
 DIIS: error= 2.84D-08 at cycle  13 NSaved=  13.
 NSaved=13 IEnMin=13 EnMin= -398.977466212619     IErMin=13 ErrMin= 2.84D-08
 ErrMax= 2.84D-08 EMaxC= 1.00D-01 BMatC= 2.37D-13 BMatP= 6.60D-12
 IDIUse=1 WtCom= 1.00D+00 WtEn= 0.00D+00
 Coeff-Com: -0.445D-06 0.124D-05 0.368D-05 0.317D-05-0.236D-05-0.172D-05
 Coeff-Com: -0.500D-03-0.223D-02-0.232D-02 0.284D-02 0.552D-01 0.197D+00
 Coeff-Com:  0.750D+00
 Coeff:     -0.445D-06 0.124D-05 0.368D-05 0.317D-05-0.236D-05-0.172D-05
 Coeff:     -0.500D-03-0.223D-02-0.232D-02 0.284D-02 0.552D-01 0.197D+00
 Coeff:      0.750D+00
 Gap=     0.215 Goal=   None    Shift=    0.000
 RMSDP=1.39D-08 MaxDP=1.58D-06 DE=-1.14D-12 OVMax= 1.51D-07

 Cycle  14  Pass 1  IDiag  1:
 RMSU=  2.12D-09    CP:  8.40D-01  3.38D-01  1.06D+00  5.73D-01  8.96D-01
                    CP:  8.19D-01  1.06D+00  9.86D-01  9.30D-01  9.59D-01
                    CP:  9.42D-01  8.94D-01  9.27D-01
 E= -398.977466212621     Delta-E=       -0.000000000002 Rises=F Damp=F
 DIIS: error= 1.27D-08 at cycle  14 NSaved=  14.
 NSaved=14 IEnMin=14 EnMin= -398.977466212621     IErMin=14 ErrMin= 1.27D-08
 ErrMax= 1.27D-08 EMaxC= 1.00D-01 BMatC= 6.20D-14 BMatP= 2.37D-13
 IDIUse=1 WtCom= 1.00D+00 WtEn= 0.00D+00
 Coeff-Com: -0.110D-06 0.415D-06 0.218D-05 0.261D-05 0.292D-05 0.161D-04
 Coeff-Com: -0.221D-03-0.853D-03-0.200D-02-0.428D-02 0.107D-01 0.740D-01
 Coeff-Com:  0.443D+00 0.480D+00
 Coeff:     -0.110D-06 0.415D-06 0.218D-05 0.261D-05 0.292D-05 0.161D-04
 Coeff:     -0.221D-03-0.853D-03-0.200D-02-0.428D-02 0.107D-01 0.740D-01
 Coeff:      0.443D+00 0.480D+00
 Gap=     0.215 Goal=   None    Shift=    0.000
 RMSDP=2.65D-09 MaxDP=1.24D-07 DE=-2.27D-12 OVMax= 4.76D-08

 Error on total polarization charges =  0.01313
 SCF Done:  E(RB3LYP) =  -398.977466213     A.U. after   14 cycles
             Convg  =    0.2651D-08             -V/T =  2.0039
 KE= 3.974268176329D+02 PE=-1.585188490073D+03 EE= 4.644449691920D+02
 Leave Link  502 at Sat Apr 16 01:19:55 2016, MaxMem=   33554432 cpu:     328.0
 (Enter c:\G09w05\l801.exe)
 Range of M.O.s used for correlation:     1   203
 NBasis=   203 NAE=    28 NBE=    28 NFC=     0 NFV=     0
 NROrb=    203 NOA=    28 NOB=    28 NVA=   175 NVB=   175

 **** Warning!!: The largest alpha MO coefficient is  0.75895081D+02

 Leave Link  801 at Sat Apr 16 01:19:55 2016, MaxMem=   33554432 cpu:       0.0
 (Enter c:\G09w05\l1101.exe)
 Using compressed storage, NAtomX=    14.
 Will process  15 centers per pass.
 Leave Link 1101 at Sat Apr 16 01:19:56 2016, MaxMem=   33554432 cpu:       1.0
 (Enter c:\G09w05\l1102.exe)
 Symmetrizing basis deriv contribution to polar:
 IMax=3 JMax=2 DiffMx= 0.00D+00
 Leave Link 1102 at Sat Apr 16 01:19:56 2016, MaxMem=   33554432 cpu:       0.0
 (Enter c:\G09w05\l1110.exe)
 Forming Gx(P) for the SCF density, NAtomX=    14.
 Integral derivatives from FoFDir/FoFCou, PRISM(SPDF).
 Do as many integral derivatives as possible in FoFDir.
 G2DrvN: MDV=      33554294.
 G2DrvN: will do    15 centers at a time, making    1 passes doing MaxLOS=2.
 Calling FoFCou, ICntrl=  3107 FMM=F I1Cent=   0 AccDes= 0.00D+00.
 FoFCou: FMM=F IPFlag=           0 FMFlag=      100000 FMFlg1=           0
         NFxFlg=           0 DoJE=F BraDBF=F KetDBF=F FulRan=T
         Omega=  0.000000  0.000000  1.000000  0.000000  0.000000 ICntrl=    3107 IOpCl=  0
         NMat0=    1 NMatS0=    1 NMatT0=    0 NMatD0=    1 NMtDS0=    0 NMtDT0=    0
         I1Cent=           0 NGrid=           0.
 Symmetry not used in FoFCou.
 FoFDir/FoFCou used for L=0 through L=2.
 G2PCM: DoFxE=T DoFxN=T DoGrad=T DoPD/DQ/DG=FFF NFrqRd=   0 IEInf=0 DoCFld=F IF1Alg=4.
 GePol: Maximum number of non-zero 1st derivatives   =     200
 End of G2Drv Frequency-dependent properties file   721 does not exist.
 End of G2Drv Frequency-dependent properties file   722 does not exist.
 Leave Link 1110 at Sat Apr 16 01:26:41 2016, MaxMem=   33554432 cpu:     404.0
 (Enter c:\G09w05\l1002.exe)
 Minotr:  Closed shell wavefunction.
          IDoAtm=11111111111111
 NEqPCM:  Using equilibrium solvation (IEInf=0, Eps=  78.3553, EpsInf=   1.7778)
          Direct CPHF calculation.
          Differentiating once with respect to nuclear coordinates.
          Requested convergence is 1.0D-06 RMS, and 1.0D-05 maximum.
          Secondary convergence is 1.0D-12 RMS, and 1.0D-12 maximum.
          NewPWx=T KeepS1=F KeepF1=F KeepIn=T MapXYZ=F SortEE=F KeepMc=T.
          MDV=      33554330 using IRadAn=       2.
 Generate precomputed XC quadrature information.
          Solving linear equations simultaneously, MaxMat=       0.
 Symmetry not used in FoFDir.
 MinBra= 0 MaxBra= 2 Meth= 1.
 IRaf=       0 NMat=  45 IRICut=     112 DoRegI=T DoRafI=T ISym2E= 0 JSym2E=0.
          There are    45 degrees of freedom in the 1st order CPHF.  IDoFFX=5.
     39 vectors produced by pass  0 Test12= 1.09D-10 2.22D-07 XBig12= 2.27D-01 9.23D-02.
 AX will form    39 AO Fock derivatives at one time.
     39 vectors produced by pass  1 Test12= 1.09D-10 2.22D-07 XBig12= 5.02D-02 1.02D-01.
     39 vectors produced by pass  2 Test12= 1.09D-10 2.22D-07 XBig12= 4.17D-04 3.19D-03.
     39 vectors produced by pass  3 Test12= 1.09D-10 2.22D-07 XBig12= 3.83D-06 3.36D-04.
     26 vectors produced by pass  4 Test12= 1.09D-10 2.22D-07 XBig12= 1.32D-08 1.28D-05.
      2 vectors produced by pass  5 Test12= 1.09D-10 2.22D-07 XBig12= 2.32D-11 4.44D-07.
 Inverted reduced A of dimension   184 with in-core refinement.
 End of Minotr Frequency-dependent properties file   721 does not exist.
 End of Minotr Frequency-dependent properties file   722 does not exist.
 Leave Link 1002 at Sat Apr 16 01:36:39 2016, MaxMem=   33554432 cpu:     597.0
 (Enter c:\G09w05\l601.exe)
 Copying SCF densities to generalized density rwf, IOpCl= 0 IROHF=0.

 **********************************************************************

            Population analysis using the SCF density.

 **********************************************************************

 Alpha  occ. eigenvalues --  -19.19074 -19.15955 -19.13776 -14.32069 -10.32965
 Alpha  occ. eigenvalues --  -10.23289 -10.22950  -1.14277  -1.06037  -1.03718
 Alpha  occ. eigenvalues --   -0.90713  -0.75177  -0.67737  -0.60664  -0.54579
 Alpha  occ. eigenvalues --   -0.52629  -0.51296  -0.50034  -0.48010  -0.45894
 Alpha  occ. eigenvalues --   -0.43026  -0.41202  -0.36778  -0.35943  -0.35118
 Alpha  occ. eigenvalues --   -0.29710  -0.27651  -0.25247
 Alpha virt. eigenvalues --   -0.03771  -0.01697  -0.00777   0.00279   0.01168
 Alpha virt. eigenvalues --    0.03469   0.03942   0.05311   0.05669   0.06175
 Alpha virt. eigenvalues --    0.07662   0.08854   0.08984   0.10439   0.11081
 Alpha virt. eigenvalues --    0.11403   0.12148   0.12550   0.13507   0.14404
 Alpha virt. eigenvalues --    0.15318   0.15784   0.17246   0.18156   0.18309
 Alpha virt. eigenvalues --    0.19360   0.20108   0.21315   0.22202   0.22617
 Alpha virt. eigenvalues --    0.24776   0.24882   0.25446   0.26226   0.26516
 Alpha virt. eigenvalues --    0.27768   0.28695   0.29533   0.30213   0.30795
 Alpha virt. eigenvalues --    0.31745   0.32641   0.33758   0.35266   0.36070
 Alpha virt. eigenvalues --    0.37024   0.38919   0.39972   0.46362   0.47915
 Alpha virt. eigenvalues --    0.48021   0.51350   0.54949   0.56391   0.57374
 Alpha virt. eigenvalues --    0.58662   0.61055   0.63044   0.64039   0.65085
 Alpha virt. eigenvalues --    0.68780   0.69544   0.70565   0.73943   0.74272
 Alpha virt. eigenvalues --    0.80865   0.82968   0.85354   0.89307   0.90364
 Alpha virt. eigenvalues --    0.96947   1.03908   1.05675   1.07610   1.09499
 Alpha virt. eigenvalues --    1.11510   1.12243   1.13401   1.16502   1.18020
 Alpha virt. eigenvalues --    1.19171   1.23575   1.24525   1.27579   1.32192
 Alpha virt. eigenvalues --    1.32577   1.37207   1.41775   1.43823   1.45773
 Alpha virt. eigenvalues --    1.48889   1.51907   1.54309   1.57536   1.59158
 Alpha virt. eigenvalues --    1.60267   1.62299   1.63421   1.64202   1.67259
 Alpha virt. eigenvalues --    1.69562   1.73490   1.76506   1.79697   1.80771
 Alpha virt. eigenvalues --    1.84968   1.91997   1.95266   1.97400   2.00413
 Alpha virt. eigenvalues --    2.04543   2.06494   2.09998   2.13774   2.17078
 Alpha virt. eigenvalues --    2.21174   2.22312   2.31157   2.47879   2.51091
 Alpha virt. eigenvalues --    2.54088   2.54697   2.56190   2.58762   2.61826
 Alpha virt. eigenvalues --    2.64950   2.67189   2.72027   2.77611   2.78770
 Alpha virt. eigenvalues --    2.83311   2.89191   2.94101   2.94578   2.98368
 Alpha virt. eigenvalues --    3.03201   3.03804   3.05926   3.12251   3.13446
 Alpha virt. eigenvalues --    3.15560   3.17774   3.21469   3.25674   3.30608
 Alpha virt. eigenvalues --    3.32763   3.35319   3.57509   3.61291   3.75882
 Alpha virt. eigenvalues --    3.79945   3.83684   3.92486   4.00053   4.05294
 Alpha virt. eigenvalues --    4.11184   4.25120   4.71686   4.78840   4.96308
 Alpha virt. eigenvalues --    5.02582   5.05960   5.13251   5.35928   5.39623
 Alpha virt. eigenvalues --    5.58697   5.65039   5.84303  23.69633  23.78120
 Alpha virt. eigenvalues --   23.85135  35.58746  49.86209  49.90397  49.97191
          Condensed to atoms (all electrons):
              1          2          3          4          5          6
     1  N    6.766452   0.409886  -0.619407   0.032839   0.190890   0.145227
     2  H    0.409886   0.442484  -0.125221   0.008341   0.032286  -0.005341
     3  C   -0.619407  -0.125221  10.957494   0.099888  -1.644741  -1.599637
     4  H    0.032839   0.008341   0.099888   0.695181   0.039798   0.001456
     5  C    0.190890   0.032286  -1.644741   0.039798   6.255472   0.465242
     6  C    0.145227  -0.005341  -1.599637   0.001456   0.465242   6.184563
     7  H    0.022381   0.001018  -0.212875  -0.013636   0.506758   0.041147
     8  H   -0.017982   0.004065   0.175008   0.016244   0.246343  -0.100819
     9  O    0.010572   0.002230  -0.139060  -0.007605   0.181831   0.060554
    10  O   -0.005872   0.015167  -0.218844   0.045773  -0.006827   0.249040
    11  H    0.001526   0.000595  -0.035466   0.003879   0.040895   0.002218
    12  H    0.392966  -0.044775  -0.071482  -0.003575   0.001542   0.024222
    13  O   -0.015742  -0.006485  -0.108798  -0.056563  -0.036423   0.415640
    14  H    0.010062  -0.000559  -0.078833  -0.000743   0.010742   0.052211
              7          8          9         10         11         12
     1  N    0.022381  -0.017982   0.010572  -0.005872   0.001526   0.392966
     2  H    0.001018   0.004065   0.002230   0.015167   0.000595  -0.044775
     3  C   -0.212875   0.175008  -0.139060  -0.218844  -0.035466  -0.071482
     4  H   -0.013636   0.016244  -0.007605   0.045773   0.003879  -0.003575
     5  C    0.506758   0.246343   0.181831  -0.006827   0.040895   0.001542
     6  C    0.041147  -0.100819   0.060554   0.249040   0.002218   0.024222
     7  H    0.596588  -0.073215  -0.050620  -0.002219  -0.002512  -0.001396
     8  H   -0.073215   0.618177  -0.061454   0.008107  -0.006021   0.001020
     9  O   -0.050620  -0.061454   8.102182   0.004026   0.244384  -0.000059
    10  O   -0.002219   0.008107   0.004026   7.955765   0.000139  -0.003000
    11  H   -0.002512  -0.006021   0.244384   0.000139   0.460550  -0.000409
    12  H   -0.001396   0.001020  -0.000059  -0.003000  -0.000409   0.425856
    13  O    0.001874  -0.006857  -0.002103  -0.124772  -0.001117   0.001341
    14  H   -0.000989  -0.001425   0.001209   0.261546   0.000061   0.000753
             13         14
     1  N   -0.015742   0.010062
     2  H   -0.006485  -0.000559
     3  C   -0.108798  -0.078833
     4  H   -0.056563  -0.000743
     5  C   -0.036423   0.010742
     6  C    0.415640   0.052211
     7  H    0.001874  -0.000989
     8  H   -0.006857  -0.001425
     9  O   -0.002103   0.001209
    10  O   -0.124772   0.261546
    11  H   -0.001117   0.000061
    12  H    0.001341   0.000753
    13  O    8.186617  -0.009400
    14  H   -0.009400   0.432490
 Mulliken atomic charges:
              1
     1  N   -0.323798
     2  H    0.266308
     3  C   -0.378026
     4  H    0.138724
     5  C   -0.283808
     6  C    0.064276
     7  H    0.187696
     8  H    0.198808
     9  O   -0.346088
    10  O   -0.178029
    11  H    0.291278
    12  H    0.276996
    13  O   -0.237211
    14  H    0.322874
 Sum of Mulliken atomic charges =   0.00000
 Mulliken charges with hydrogens summed into heavy atoms:
              1
     1  N    0.219507
     3  C   -0.239302
     5  C    0.102695
     6  C    0.064276
     9  O   -0.054810
    10  O    0.144844
    13  O   -0.237211
 Sum of Mulliken charges with hydrogens summed into heavy atoms =   0.00000
 APT atomic charges:
              1
     1  N   -0.912492
     2  H    0.433157
     3  C   -0.473749
     4  H    0.141729
     5  C   -0.630742
     6  C    0.103164
     7  H    0.478171
     8  H    0.333428
     9  O   -0.923312
    10  O   -0.613104
    11  H    0.796804
    12  H    0.562975
    13  O   -0.064364
    14  H    0.768334
 Sum of APT charges=   0.00000
 APT Atomic charges with hydrogens summed into heavy atoms:
              1
     1  N    0.083639
     2  H    0.000000
     3  C   -0.332019
     4  H    0.000000
     5  C    0.180857
     6  C    0.103164
     7  H    0.000000
     8  H    0.000000
     9  O   -0.126508
    10  O    0.155231
    11  H    0.000000
    12  H    0.000000
    13  O   -0.064364
    14  H    0.000000
 Sum of APT charges=   0.00000
 Electronic spatial extent (au):  <R**2>=            760.3835
 Charge=              0.0000 electrons
 Dipole moment (field-independent basis, Debye):
    X=             -0.5458    Y=              0.5999    Z=              3.9306  Tot=              4.0134
 Quadrupole moment (field-independent basis, Debye-Ang):
   XX=            -34.6235   YY=            -44.5719   ZZ=            -43.0718
   XY=             -4.9168   XZ=             -0.6239   YZ=             -3.2298
 Traceless Quadrupole moment (field-independent basis, Debye-Ang):
   XX=              6.1322   YY=             -3.8162   ZZ=             -2.3160
   XY=             -4.9168   XZ=             -0.6239   YZ=             -3.2298
 Octapole moment (field-independent basis, Debye-Ang**2):
  XXX=             18.2636  YYY=             -9.7521  ZZZ=             -2.2324  XYY=             -6.3107
  XXY=             -8.8950  XXZ=             16.7975  XZZ=             -0.4158  YZZ=             -1.7941
  YYZ=              5.6736  XYZ=              4.2607
 Hexadecapole moment (field-independent basis, Debye-Ang**3):
 XXXX=           -367.6543 YYYY=           -353.0949 ZZZZ=           -168.1627 XXXY=            -26.2049
 XXXZ=            -14.7631 YYYX=            -42.0967 YYYZ=             -7.4959 ZZZX=             -8.1601
 ZZZY=             -5.6636 XXYY=           -112.0102 XXZZ=            -90.4719 YYZZ=            -74.8071
 XXYZ=            -29.9850 YYXZ=              0.0313 ZZXY=              0.5868
 N-N= 3.243392370353D+02 E-N=-1.585188491849D+03  KE= 3.974268176329D+02
  Exact polarizability:   0.000   0.000   0.000   0.000   0.000   0.000
 Approx polarizability:  83.373  15.020  94.899   8.665  17.199  95.288
 No NMR shielding tensors so no spin-rotation constants.
 Leave Link  601 at Sat Apr 16 01:36:40 2016, MaxMem=   33554432 cpu:       0.0
 (Enter c:\G09w05\l701.exe)
 Compute integral second derivatives.
 ... and contract with generalized density number  0.
 D2PCM: C-PCM CHGder 2nd derivatives, FixD1E=F FixD2E=F DoIter=F DoCFld=F I1PDM=0
 GePol: Maximum number of non-zero 2nd derivatives   =     200
 Leave Link  701 at Sat Apr 16 01:37:11 2016, MaxMem=   33554432 cpu:      31.0
 (Enter c:\G09w05\l702.exe)
 L702 exits ... SP integral derivatives will be done elsewhere.
 Leave Link  702 at Sat Apr 16 01:37:11 2016, MaxMem=   33554432 cpu:       0.0
 (Enter c:\G09w05\l703.exe)
 Compute integral second derivatives, UseDBF=F ICtDFT=           0.
 Integral derivatives from FoFDir, PRISM(SPDF).
 Calling FoFJK, ICntrl=    100147 FMM=F ISym2X=0 I1Cent= 0 IOpClX= 0 NMat=1 NMatS=1 NMatT=0.
 FoFCou: FMM=F IPFlag=           0 FMFlag=      100000 FMFlg1=         800
         NFxFlg=           0 DoJE=F BraDBF=F KetDBF=F FulRan=T
         Omega=  0.000000  0.000000  1.000000  0.000000  0.000000 ICntrl=  100147 IOpCl=  0
         NMat0=    1 NMatS0=    1 NMatT0=    0 NMatD0=    1 NMtDS0=    0 NMtDT0=    0
         I1Cent=           0 NGrid=           0.
 Symmetry not used in FoFCou.
 Leave Link  703 at Sat Apr 16 01:47:39 2016, MaxMem=   33554432 cpu:     628.0
 (Enter c:\G09w05\l716.exe)
 Dipole        =-2.14744376D-01 2.36031374D-01 1.54641854D+00
 Polarizability= 0.00000000D+00 0.00000000D+00 0.00000000D+00
                 0.00000000D+00 0.00000000D+00 0.00000000D+00
 -------------------------------------------------------------------
 Center     Atomic                   Forces (Hartrees/Bohr)
 Number     Number              X              Y              Z
 -------------------------------------------------------------------
      1        7           0.000184315   -0.004612068   -0.025989925
      2        1          -0.000343328   -0.003235537    0.002136903
      3        6          -0.025838877   -0.062848400   -0.019139769
      4        1           0.041315073    0.063063172   -0.002789187
      5        6          -0.005379741   -0.000234698   -0.014161877
      6        6           0.004243893    0.025167094    0.066494265
      7        1           0.000592413    0.000389810    0.000375981
      8        1          -0.000079798    0.000019666    0.001916919
      9        8           0.000788110   -0.000524516    0.001984500
     10        8          -0.009528641   -0.006935511   -0.005549888
     11        1          -0.000030837   -0.000410179    0.000565009
     12        1           0.000116434    0.001911623    0.000330461
     13        8          -0.005094345   -0.011682836   -0.009778145
     14        1          -0.000944671   -0.000067621    0.003604752
 -------------------------------------------------------------------
 Cartesian Forces:  Max     0.066494265 RMS     0.020204323
 Leave Link  716 at Sat Apr 16 01:47:40 2016, MaxMem=   33554432 cpu:       0.0
 (Enter c:\G09w05\l103.exe)

 GradGradGradGradGradGradGradGradGradGradGradGradGradGradGradGradGradGrad
 Berny optimization.
 Red2BG is reusing G-inverse.
 Internal  Forces:  Max     0.056256255 RMS     0.011026707
 Search for a saddle point.
 Step number   1 out of a maximum of   74
 All quantities printed in internal units (Hartrees-Bohrs-Radians)
 Swaping is turned off.
 Second derivative matrix not updated -- analytic derivatives used.
 ITU=  0
     Eigenvalues ---   -0.03564   0.00019   0.00155   0.00384   0.00461
     Eigenvalues ---    0.01390   0.01501   0.02546   0.02815   0.02976
     Eigenvalues ---    0.03508   0.04848   0.06293   0.07459   0.08940
     Eigenvalues ---    0.09653   0.10490   0.12992   0.13208   0.14000
     Eigenvalues ---    0.15904   0.17127   0.17497   0.20963   0.24288
     Eigenvalues ---    0.27253   0.31809   0.32210   0.33399   0.37495
     Eigenvalues ---    0.38154   0.44379   0.45059   0.50522   0.52936
     Eigenvalues ---    0.75005
 Eigenvectors required to have negative eigenvalues:
                          R4        R8        D27       A18       D18
   1                   -0.63345   0.49353  -0.32635  -0.22087  -0.18356
                          D20       D26       D19       D4        D12
   1                   -0.15609   0.14476  -0.11687   0.10153  -0.09008
 RFO step:  Lambda0=3.709037522D-02 Lambda=-4.00432356D-02.
 Linear search not attempted -- option 19 set.
 Maximum step size (   0.300) exceeded in Quadratic search.
    -- Step size scaled by   0.396
 Iteration  1 RMS(Cart)=  0.03472580 RMS(Int)=  0.01301481
 Iteration  2 RMS(Cart)=  0.01240483 RMS(Int)=  0.00410803
 Iteration  3 RMS(Cart)=  0.00048403 RMS(Int)=  0.00403958
 Iteration  4 RMS(Cart)=  0.00002461 RMS(Int)=  0.00403955
 Iteration  5 RMS(Cart)=  0.00000062 RMS(Int)=  0.00403955
 Variable       Old X    -DE/DX   Delta X   Delta X   Delta X     New X
                                 (Linear)    (Quad)   (Total)
    R1        1.91953   0.00184   0.00000   0.00230   0.00230   1.92183
    R2        2.76646  -0.01114   0.00000  -0.00990  -0.00990   2.75656
    R3        1.91757   0.00044   0.00000  -0.00070  -0.00070   1.91687
    R4        3.00750  -0.05626   0.00000   0.07655   0.06908   3.07657
    R5        2.89028  -0.00742   0.00000  -0.00780  -0.00780   2.88248
    R6        2.89158  -0.00561   0.00000  -0.02235  -0.01841   2.87317
    R7        3.09780   0.01967   0.00000   0.04037   0.03937   3.13716
    R8        3.02356   0.01029   0.00000  -0.21736  -0.21149   2.81208
    R9        2.06799   0.00054   0.00000   0.00071   0.00071   2.06870
   R10        2.07072   0.00190   0.00000   0.00505   0.00505   2.07577
   R11        2.70036   0.00044   0.00000   0.00223   0.00223   2.70259
   R12        2.54758   0.00027   0.00000  -0.02799  -0.02799   2.51959
   R13        2.28743   0.01144   0.00000   0.02301   0.02228   2.30971
   R14        1.81977   0.00039   0.00000   0.00016   0.00016   1.81993
   R15        1.83386   0.00137   0.00000   0.00050   0.00050   1.83436
    A1        1.93735  -0.00613   0.00000   0.01061   0.01058   1.94793
    A2        1.87449   0.00086   0.00000   0.00160   0.00153   1.87602
    A3        1.93504   0.00400   0.00000   0.00438   0.00434   1.93938
    A4        2.39324  -0.01745   0.00000  -0.02867  -0.03091   2.36233
    A5        1.90417   0.01513   0.00000   0.00621   0.00618   1.91035
    A6        1.98162  -0.01255   0.00000  -0.00731  -0.00983   1.97180
    A7        1.94439  -0.00117   0.00000   0.02408   0.02642   1.97082
    A8        1.93728  -0.00479   0.00000  -0.00487  -0.00203   1.93526
    A9        1.73700   0.00416   0.00000   0.00865   0.00744   1.74444
   A10        1.88782  -0.00006   0.00000   0.00263   0.00262   1.89044
   A11        1.91565  -0.00120   0.00000   0.00268   0.00270   1.91835
   A12        1.88558   0.00350   0.00000   0.00757   0.00755   1.89313
   A13        1.89713   0.00009   0.00000  -0.00473  -0.00474   1.89239
   A14        1.94325  -0.00040   0.00000   0.00051   0.00048   1.94372
   A15        1.93382  -0.00190   0.00000  -0.00828  -0.00829   1.92553
   A16        1.95630   0.02886   0.00000   0.08313   0.06681   2.02311
   A17        2.18301  -0.02686   0.00000  -0.07687  -0.07670   2.10631
   A18        2.89877   0.00869   0.00000   0.13321   0.12621   3.02498
   A19        2.14349  -0.00189   0.00000  -0.00612   0.00969   2.15319
   A20        1.89707   0.00027   0.00000  -0.00181  -0.00181   1.89526
   A21        1.89829   0.00637   0.00000   0.01513   0.01513   1.91342
    D1        2.26280   0.00913   0.00000   0.00907   0.00807   2.27088
    D2       -1.22524  -0.00321   0.00000   0.02268   0.02227  -1.20296
    D3        0.94538  -0.00689   0.00000   0.01583   0.01728   0.96266
    D4        0.18085   0.00944   0.00000  -0.00273  -0.00377   0.17708
    D5        2.97599  -0.00289   0.00000   0.01087   0.01043   2.98643
    D6       -1.13658  -0.00658   0.00000   0.00402   0.00545  -1.13114
    D7       -1.52839  -0.01218   0.00000  -0.04360  -0.04789  -1.57628
    D8        1.96506  -0.00172   0.00000  -0.05476  -0.05930   1.90576
    D9       -1.05657   0.00193   0.00000  -0.00012  -0.00051  -1.05708
   D10        1.01072   0.00132   0.00000  -0.00275  -0.00315   1.00757
   D11        3.12109   0.00044   0.00000  -0.00658  -0.00699   3.11410
   D12        1.83424  -0.01152   0.00000  -0.00079  -0.00123   1.83300
   D13       -2.38166  -0.01213   0.00000  -0.00342  -0.00387  -2.38553
   D14       -0.27128  -0.01301   0.00000  -0.00726  -0.00771  -0.27900
   D15        3.03017   0.01045   0.00000   0.00819   0.00905   3.03922
   D16       -1.18572   0.00984   0.00000   0.00556   0.00641  -1.17931
   D17        0.92465   0.00895   0.00000   0.00172   0.00257   0.92722
   D18       -1.05366  -0.00751   0.00000   0.06559   0.07315  -0.98051
   D19        2.05881  -0.00344   0.00000   0.07090   0.06689   2.12569
   D20        1.09894  -0.00058   0.00000   0.06457   0.07245   1.17139
   D21       -2.07178   0.00349   0.00000   0.06989   0.06619  -2.00559
   D22        2.91528   0.00407   0.00000   0.06494   0.07175   2.98703
   D23       -3.05874   0.00108   0.00000   0.00588   0.00590  -3.05284
   D24        1.15392  -0.00079   0.00000  -0.00235  -0.00234   1.15158
   D25       -0.95971   0.00067   0.00000   0.00898   0.00896  -0.95076
   D26        3.10691   0.00327   0.00000  -0.03458  -0.04278   3.06413
   D27       -2.24237  -0.00313   0.00000   0.14786   0.15242  -2.08995
   D28       -0.00632  -0.00020   0.00000  -0.03834  -0.03470  -0.04102
         Item               Value     Threshold  Converged?
 Maximum Force            0.056256     0.000450     NO 
 RMS     Force            0.011027     0.000300     NO 
 Maximum Displacement     0.179367     0.001800     NO 
 RMS     Displacement     0.045764     0.001200     NO 
 Predicted change in Energy=-6.451593D-04
 GradGradGradGradGradGradGradGradGradGradGradGradGradGradGradGradGradGrad

 Leave Link  103 at Sat Apr 16 01:47:40 2016, MaxMem=   33554432 cpu:       0.0
 (Enter c:\G09w05\l202.exe)
                          Input orientation:                          
 ---------------------------------------------------------------------
 Center     Atomic      Atomic             Coordinates (Angstroms)
 Number     Number       Type             X           Y           Z
 ---------------------------------------------------------------------
      1          7           0       -0.097955    2.009001   -0.008082
      2          1           0       -0.330533    2.118992    0.975827
      3          6           0        0.164186    0.614258   -0.345435
      4          1           0       -0.345890   -0.413635   -1.500343
      5          6           0        1.464265    0.167409    0.315464
      6          6           0       -0.981108   -0.312529    0.030102
      7          1           0        2.276591    0.795627   -0.063818
      8          1           0        1.397645    0.305249    1.403194
      9          8           0        1.681530   -1.210898    0.001784
     10          8           0       -1.355404   -0.287507    1.309549
     11          1           0        2.457967   -1.516520    0.482661
     12          1           0       -0.874587    2.375799   -0.547744
     13          8           0       -1.531933   -0.998747   -0.818180
     14          1           0       -2.132402   -0.856055    1.433203
 ---------------------------------------------------------------------
                    Distance matrix (angstroms):
                    1          2          3          4          5
     1  N    0.000000
     2  H    1.016990   0.000000
     3  C    1.458709   2.062693   0.000000
     4  H    2.856129   3.542012   1.628052   0.000000
     5  C    2.436529   2.732408   1.525341   2.628959   0.000000
     6  C    2.484134   2.688855   1.520415   1.660115   2.508310
     7  H    2.667180   3.103103   2.138797   3.225418   1.094708
     8  H    2.670448   2.541438   2.162085   3.462259   1.098452
     9  O    3.678915   4.010652   2.398768   2.646214   1.430150
    10  O    2.931088   2.636848   2.421013   2.988397   3.024183
    11  H    4.382107   4.608242   3.238424   3.606976   1.962401
    12  H    1.014363   1.638051   2.054994   2.994645   3.330516
    13  O    3.429154   3.792377   2.387906   1.488086   3.409145
    14  H    3.798003   3.508109   3.255717   3.463098   3.902926
                    6          7          8          9         10
     6  C    0.000000
     7  H    3.442300   0.000000
     8  H    2.815226   1.779085   0.000000
     9  O    2.810251   2.093930   2.084044   0.000000
    10  O    1.333307   4.031216   2.817695   3.433055   0.000000
    11  H    3.671735   2.382764   2.300110   0.963068   4.090967
    12  H    2.751792   3.558236   3.640930   4.438480   3.282365
    13  O    1.222246   4.277113   3.900941   3.323206   2.250390
    14  H    1.894622   4.940480   3.716283   4.089126   0.970703
                   11         12         13         14
    11  H    0.000000
    12  H    5.226642   0.000000
    13  O    4.228425   3.448594   0.000000
    14  H    4.734050   3.993886   2.334448   0.000000
 Symmetry turned off by external request.
 Stoichiometry    C3H7NO3
 Framework group  C1[X(C3H7NO3)]
 Deg. of freedom    36
 Full point group                 C1      NOp   1
 Rotational constants (GHZ):      3.0636461      2.3502548      1.7704723
 Leave Link  202 at Sat Apr 16 01:47:40 2016, MaxMem=   33554432 cpu:       0.0
 (Enter c:\G09w05\l301.exe)
 Standard basis: 6-311++G(d,p) (5D, 7F)
 Ernie: Thresh=  0.10000D-02 Tol=  0.10000D-05 Strict=F.
 Integral buffers will be    262144 words long.
 Raffenetti 2 integral format.
 Two-electron integral symmetry is turned off.
   203 basis functions,   315 primitive gaussians,   210 cartesian basis functions
    28 alpha electrons       28 beta electrons
       nuclear repulsion energy       324.5263390746 Hartrees.
 IExCor=  402 DFT=T Ex+Corr=B3LYP ExCW=0 ScaHFX=  0.200000
 ScaDFX=  0.800000  0.720000  1.000000  0.810000 ScalE2=  1.000000  1.000000
 IRadAn=      0 IRanWt=     -1 IRanGd=            0 ICorTp=0
 NAtoms=   14 NActive=   14 NUniq=   14 SFac= 1.00D+00 NAtFMM=   50 NAOKFM=F Big=F
 ------------------------------------------------------------------------------
 Polarizable Continuum Model (PCM)
 =================================
 Model                : C-PCM.
 Atomic radii         : UFF (Universal Force Field).
 Polarization charges : Total charges.
 Charge compensation  : None.
 Solution method      : Matrix inversion.
 Cavity type          : Scaled VdW (van der Waals Surface) (Alpha=1.100).
 Cavity algorithm     : GePol (No added spheres)
                        Default sphere list used, NSphG=   14.
                        Lebedev-Laikov grids with approx.  5.0 points / Ang**2.
                        Smoothing algorithm: Karplus/York (Gamma=1.0000).
                        Polarization charges: spherical gaussians, with
                                              point-specific exponents (IZeta= 3).
                        Self-potential: point-specific (ISelfS= 7).
                        Self-field    : sphere-specific E.n sum rule (ISelfD= 2).
 1st derivatives      : Analytical E(r).r(x)/FMM algorithm (CHGder, D1EAlg=3).
                        Cavity 1st derivative terms included.
 Solvent              : Water, Eps=  78.355300 Eps(inf)=   1.777849
 ------------------------------------------------------------------------------
 Spheres list:
 ISph  on   Nord    Re0     Alpha      Xe            Ye            Ze
    1   N      1    1.830   1.100     -0.097955      2.009001     -0.008082
    2   H      2    1.443   1.100     -0.330533      2.118992      0.975827
    3   C      3    1.926   1.100      0.164186      0.614258     -0.345435
    4   H      4    1.443   1.100     -0.345890     -0.413635     -1.500343
    5   C      5    1.926   1.100      1.464265      0.167409      0.315464
    6   C      6    1.926   1.100     -0.981108     -0.312529      0.030102
    7   H      7    1.443   1.100      2.276591      0.795627     -0.063818
    8   H      8    1.443   1.100      1.397645      0.305249      1.403194
    9   O      9    1.750   1.100      1.681530     -1.210898      0.001784
   10   O     10    1.750   1.100     -1.355404     -0.287507      1.309549
   11   H     11    1.443   1.100      2.457967     -1.516520      0.482661
   12   H     12    1.443   1.100     -0.874587      2.375799     -0.547744
   13   O     13    1.750   1.100     -1.531933     -0.998747     -0.818180
   14   H     14    1.443   1.100     -2.132402     -0.856055      1.433203
 ------------------------------------------------------------------------------
 GePol: Number of generator spheres                  =      14
 GePol: Total number of spheres                      =      14
 GePol: Number of exposed spheres                    =      14 (100.00%)
 GePol: Number of points                             =    1187
 GePol: Average weight of points                     =       0.14
 GePol: Minimum weight of points                     =   0.33D-07
 GePol: Maximum weight of points                     =    0.20577
 GePol: Number of points with low weight             =      67
 GePol: Fraction of low-weight points (<1% of avg)   =       5.64%
 GePol: Cavity surface area                          =    162.572 Ang**2
 GePol: Cavity volume                                =    152.136 Ang**3
 Leave Link  301 at Sat Apr 16 01:47:40 2016, MaxMem=   33554432 cpu:       0.0
 (Enter c:\G09w05\l302.exe)
 NPDir=0 NMtPBC=     1 NCelOv=     1 NCel=       1 NClECP=     1 NCelD=      1
         NCelK=      1 NCelE2=     1 NClLst=     1 CellRange=     0.0.
 One-electron integrals computed using PRISM.
 NBasis=   203 RedAO= T  NBF=   203
 NBsUse=   203 1.00D-06 NBFU=   203
 Precomputing XC quadrature grid using
 IXCGrd= 2 IRadAn=           0 IRanWt=          -1 IRanGd=           0 AccXCQ= 0.00D+00.
 NRdTot=     907 NPtTot=      115542 NUsed=      119776 NTot=      119792
 NSgBfM=   210   210   210   210   210 NAtAll=    14    14.
 Leave Link  302 at Sat Apr 16 01:47:41 2016, MaxMem=   33554432 cpu:       1.0
 (Enter c:\G09w05\l303.exe)
 DipDrv:  MaxL=1.
 Leave Link  303 at Sat Apr 16 01:47:41 2016, MaxMem=   33554432 cpu:       0.0
 (Enter c:\G09w05\l401.exe)
 Initial guess read from the read-write file.
 B after Tr=     0.000000    0.000000    0.000000
         Rot=    1.000000    0.000000    0.000000    0.000000 Ang=   0.00 deg.
 Guess basis will be translated and rotated to current coordinates.
 Generating alternative initial guess.
 Harris functional with IExCor=  402 diagonalized for initial guess.
 ExpMin= 3.60D-02 ExpMax= 8.59D+03 ExpMxC= 1.30D+03 IAcc=3 IRadAn=         0 AccDes= 0.00D+00
 HarFok:  IExCor=  402 AccDes= 0.00D+00 IRadAn=         0 IDoV= 1
 ScaDFX=  1.000000  1.000000  1.000000  1.000000
 FoFCou: FMM=F IPFlag=           0 FMFlag=      100000 FMFlg1=           0
         NFxFlg=           0 DoJE=T BraDBF=F KetDBF=T FulRan=T
         Omega=  0.000000  0.000000  1.000000  0.000000  0.000000 ICntrl=     500 IOpCl=  0
         NMat0=    1 NMatS0=    1 NMatT0=    0 NMatD0=    1 NMtDS0=    0 NMtDT0=    0
         I1Cent=           4 NGrid=           0.
 Symmetry not used in FoFCou.
 Harris En= -398.972001554958    
 Leave Link  401 at Sat Apr 16 01:47:47 2016, MaxMem=   33554432 cpu:       6.0
 (Enter c:\G09w05\l502.exe)
 Closed shell SCF:
 Requested convergence on RMS density matrix=1.00D-08 within 128 cycles.
 Requested convergence on MAX density matrix=1.00D-06.
 Requested convergence on             energy=1.00D-06.
 No special actions if energy rises.
 Using DIIS extrapolation, IDIIS=  1040.
 Two-electron integral symmetry not used.
       119652 words used for storage of precomputed grid.
 IEnd=      272517 IEndB=      272517 NGot=    33554432 MDV=    33342866
 LenX=    33342866 LenY=    33298325
 Fock matrices will be formed incrementally for  20 cycles.

 Cycle   1  Pass 1  IDiag  1:
 FoFCou: FMM=F IPFlag=           0 FMFlag=      100000 FMFlg1=           0
         NFxFlg=           0 DoJE=F BraDBF=F KetDBF=F FulRan=T
         Omega=  0.000000  0.000000  1.000000  0.000000  0.000000 ICntrl=       0 IOpCl=  0
         NMat0=    1 NMatS0=    1 NMatT0=    0 NMatD0=    1 NMtDS0=    0 NMtDT0=    0
         I1Cent=           0 NGrid=           0.
 Symmetry not used in FoFCou.
 E= -398.967882654904    
 DIIS: error= 3.09D-03 at cycle   1 NSaved=   1.
 NSaved= 1 IEnMin= 1 EnMin= -398.967882654904     IErMin= 1 ErrMin= 3.09D-03
 ErrMax= 3.09D-03 EMaxC= 1.00D-01 BMatC= 6.25D-03 BMatP= 6.25D-03
 IDIUse=3 WtCom= 9.69D-01 WtEn= 3.09D-02
 Coeff-Com:  0.100D+01
 Coeff-En:   0.100D+01
 Coeff:      0.100D+01
 Gap=     0.223 Goal=   None    Shift=    0.000
 GapD=    0.223 DampG=1.000 DampE=1.000 DampFc=1.0000 IDamp=-1.
 RMSDP=1.20D-03 MaxDP=3.40D-02              OVMax= 3.28D-02

 Cycle   2  Pass 1  IDiag  1:
 RMSU=  8.45D-04    CP:  9.95D-01
 E= -398.977986422158     Delta-E=       -0.010103767254 Rises=F Damp=F
 DIIS: error= 9.62D-04 at cycle   2 NSaved=   2.
 NSaved= 2 IEnMin= 2 EnMin= -398.977986422158     IErMin= 2 ErrMin= 9.62D-04
 ErrMax= 9.62D-04 EMaxC= 1.00D-01 BMatC= 2.80D-04 BMatP= 6.25D-03
 IDIUse=3 WtCom= 9.90D-01 WtEn= 9.62D-03
 Coeff-Com: -0.138D-01 0.101D+01
 Coeff-En:   0.000D+00 0.100D+01
 Coeff:     -0.137D-01 0.101D+01
 Gap=     0.205 Goal=   None    Shift=    0.000
 RMSDP=2.80D-04 MaxDP=2.30D-02 DE=-1.01D-02 OVMax= 1.26D-02

 Cycle   3  Pass 1  IDiag  1:
 RMSU=  1.75D-04    CP:  9.90D-01  1.04D+00
 E= -398.977622084611     Delta-E=        0.000364337547 Rises=F Damp=F
 DIIS: error= 2.00D-03 at cycle   3 NSaved=   3.
 NSaved= 3 IEnMin= 2 EnMin= -398.977986422158     IErMin= 2 ErrMin= 9.62D-04
 ErrMax= 2.00D-03 EMaxC= 1.00D-01 BMatC= 8.58D-04 BMatP= 2.80D-04
 IDIUse=3 WtCom= 1.83D-01 WtEn= 8.17D-01
 Coeff-Com: -0.421D-01 0.682D+00 0.360D+00
 Coeff-En:   0.000D+00 0.701D+00 0.299D+00
 Coeff:     -0.770D-02 0.698D+00 0.310D+00
 Gap=     0.207 Goal=   None    Shift=    0.000
 RMSDP=1.69D-04 MaxDP=1.54D-02 DE= 3.64D-04 OVMax= 8.08D-03

 Cycle   4  Pass 1  IDiag  1:
 RMSU=  5.83D-05    CP:  9.94D-01  1.04D+00  5.06D-01
 E= -398.978263685044     Delta-E=       -0.000641600432 Rises=F Damp=F
 DIIS: error= 1.55D-04 at cycle   4 NSaved=   4.
 NSaved= 4 IEnMin= 4 EnMin= -398.978263685044     IErMin= 4 ErrMin= 1.55D-04
 ErrMax= 1.55D-04 EMaxC= 1.00D-01 BMatC= 5.08D-06 BMatP= 2.80D-04
 IDIUse=3 WtCom= 9.98D-01 WtEn= 1.55D-03
 Coeff-Com: -0.134D-01 0.148D+00 0.913D-01 0.774D+00
 Coeff-En:   0.000D+00 0.000D+00 0.000D+00 0.100D+01
 Coeff:     -0.134D-01 0.148D+00 0.911D-01 0.775D+00
 Gap=     0.207 Goal=   None    Shift=    0.000
 RMSDP=4.47D-05 MaxDP=3.08D-03 DE=-6.42D-04 OVMax= 7.42D-04

 Cycle   5  Pass 1  IDiag  1:
 RMSU=  2.67D-05    CP:  9.93D-01  1.05D+00  5.38D-01  1.01D+00
 E= -398.978268036045     Delta-E=       -0.000004351001 Rises=F Damp=F
 DIIS: error= 6.72D-05 at cycle   5 NSaved=   5.
 NSaved= 5 IEnMin= 5 EnMin= -398.978268036045     IErMin= 5 ErrMin= 6.72D-05
 ErrMax= 6.72D-05 EMaxC= 1.00D-01 BMatC= 1.43D-06 BMatP= 5.08D-06
 IDIUse=1 WtCom= 1.00D+00 WtEn= 0.00D+00
 Coeff-Com: -0.418D-02 0.316D-01 0.268D-01 0.362D+00 0.584D+00
 Coeff:     -0.418D-02 0.316D-01 0.268D-01 0.362D+00 0.584D+00
 Gap=     0.207 Goal=   None    Shift=    0.000
 RMSDP=1.14D-05 MaxDP=4.66D-04 DE=-4.35D-06 OVMax= 3.40D-04

 Cycle   6  Pass 1  IDiag  1:
 RMSU=  5.81D-06    CP:  9.93D-01  1.05D+00  5.56D-01  1.04D+00  8.64D-01
 E= -398.978269173887     Delta-E=       -0.000001137843 Rises=F Damp=F
 DIIS: error= 2.31D-05 at cycle   6 NSaved=   6.
 NSaved= 6 IEnMin= 6 EnMin= -398.978269173887     IErMin= 6 ErrMin= 2.31D-05
 ErrMax= 2.31D-05 EMaxC= 1.00D-01 BMatC= 1.93D-07 BMatP= 1.43D-06
 IDIUse=1 WtCom= 1.00D+00 WtEn= 0.00D+00
 Coeff-Com:  0.261D-03-0.117D-01-0.171D-02 0.366D-01 0.279D+00 0.698D+00
 Coeff:      0.261D-03-0.117D-01-0.171D-02 0.366D-01 0.279D+00 0.698D+00
 Gap=     0.207 Goal=   None    Shift=    0.000
 RMSDP=5.73D-06 MaxDP=4.67D-04 DE=-1.14D-06 OVMax= 1.95D-04

 Cycle   7  Pass 1  IDiag  1:
 RMSU=  2.39D-06    CP:  9.93D-01  1.05D+00  5.53D-01  1.07D+00  8.94D-01
                    CP:  6.49D-01
 E= -398.978269321989     Delta-E=       -0.000000148101 Rises=F Damp=F
 DIIS: error= 8.81D-06 at cycle   7 NSaved=   7.
 NSaved= 7 IEnMin= 7 EnMin= -398.978269321989     IErMin= 7 ErrMin= 8.81D-06
 ErrMax= 8.81D-06 EMaxC= 1.00D-01 BMatC= 3.19D-08 BMatP= 1.93D-07
 IDIUse=1 WtCom= 1.00D+00 WtEn= 0.00D+00
 Coeff-Com:  0.516D-03-0.914D-02-0.293D-02-0.136D-01 0.986D-01 0.388D+00
 Coeff-Com:  0.539D+00
 Coeff:      0.516D-03-0.914D-02-0.293D-02-0.136D-01 0.986D-01 0.388D+00
 Coeff:      0.539D+00
 Gap=     0.207 Goal=   None    Shift=    0.000
 RMSDP=2.98D-06 MaxDP=3.40D-04 DE=-1.48D-07 OVMax= 4.20D-05

 Cycle   8  Pass 1  IDiag  1:
 RMSU=  5.47D-07    CP:  9.93D-01  1.05D+00  5.58D-01  1.07D+00  9.24D-01
                    CP:  7.62D-01  7.20D-01
 E= -398.978269347622     Delta-E=       -0.000000025634 Rises=F Damp=F
 DIIS: error= 1.12D-06 at cycle   8 NSaved=   8.
 NSaved= 8 IEnMin= 8 EnMin= -398.978269347622     IErMin= 8 ErrMin= 1.12D-06
 ErrMax= 1.12D-06 EMaxC= 1.00D-01 BMatC= 7.74D-10 BMatP= 3.19D-08
 IDIUse=1 WtCom= 1.00D+00 WtEn= 0.00D+00
 Coeff-Com:  0.122D-03-0.157D-02-0.659D-03-0.854D-02 0.252D-02 0.582D-01
 Coeff-Com:  0.167D+00 0.783D+00
 Coeff:      0.122D-03-0.157D-02-0.659D-03-0.854D-02 0.252D-02 0.582D-01
 Coeff:      0.167D+00 0.783D+00
 Gap=     0.207 Goal=   None    Shift=    0.000
 RMSDP=3.72D-07 MaxDP=2.37D-05 DE=-2.56D-08 OVMax= 2.08D-05

 Cycle   9  Pass 1  IDiag  1:
 RMSU=  1.71D-07    CP:  9.93D-01  1.05D+00  5.58D-01  1.07D+00  9.29D-01
                    CP:  7.70D-01  7.42D-01  9.98D-01
 E= -398.978269348408     Delta-E=       -0.000000000786 Rises=F Damp=F
 DIIS: error= 4.76D-07 at cycle   9 NSaved=   9.
 NSaved= 9 IEnMin= 9 EnMin= -398.978269348408     IErMin= 9 ErrMin= 4.76D-07
 ErrMax= 4.76D-07 EMaxC= 1.00D-01 BMatC= 1.38D-10 BMatP= 7.74D-10
 IDIUse=1 WtCom= 1.00D+00 WtEn= 0.00D+00
 Coeff-Com:  0.165D-04 0.262D-04-0.803D-04-0.268D-02-0.594D-02-0.205D-02
 Coeff-Com:  0.375D-01 0.364D+00 0.609D+00
 Coeff:      0.165D-04 0.262D-04-0.803D-04-0.268D-02-0.594D-02-0.205D-02
 Coeff:      0.375D-01 0.364D+00 0.609D+00
 Gap=     0.207 Goal=   None    Shift=    0.000
 RMSDP=1.22D-07 MaxDP=4.23D-06 DE=-7.86D-10 OVMax= 7.65D-06

 Cycle  10  Pass 1  IDiag  1:
 RMSU=  6.09D-08    CP:  9.93D-01  1.05D+00  5.58D-01  1.07D+00  9.27D-01
                    CP:  7.74D-01  7.51D-01  1.04D+00  8.77D-01
 E= -398.978269348536     Delta-E=       -0.000000000128 Rises=F Damp=F
 DIIS: error= 2.33D-07 at cycle  10 NSaved=  10.
 NSaved=10 IEnMin=10 EnMin= -398.978269348536     IErMin=10 ErrMin= 2.33D-07
 ErrMax= 2.33D-07 EMaxC= 1.00D-01 BMatC= 1.92D-11 BMatP= 1.38D-10
 IDIUse=1 WtCom= 1.00D+00 WtEn= 0.00D+00
 Coeff-Com: -0.731D-05 0.234D-03 0.491D-04-0.430D-03-0.385D-02-0.974D-02
 Coeff-Com: -0.277D-02 0.892D-01 0.308D+00 0.619D+00
 Coeff:     -0.731D-05 0.234D-03 0.491D-04-0.430D-03-0.385D-02-0.974D-02
 Coeff:     -0.277D-02 0.892D-01 0.308D+00 0.619D+00
 Gap=     0.207 Goal=   None    Shift=    0.000
 RMSDP=7.10D-08 MaxDP=7.43D-06 DE=-1.28D-10 OVMax= 2.24D-06

 Cycle  11  Pass 1  IDiag  1:
 RMSU=  2.71D-08    CP:  9.93D-01  1.05D+00  5.58D-01  1.07D+00  9.27D-01
                    CP:  7.71D-01  7.57D-01  1.05D+00  8.92D-01  7.34D-01
 E= -398.978269348556     Delta-E=       -0.000000000020 Rises=F Damp=F
 DIIS: error= 4.66D-08 at cycle  11 NSaved=  11.
 NSaved=11 IEnMin=11 EnMin= -398.978269348556     IErMin=11 ErrMin= 4.66D-08
 ErrMax= 4.66D-08 EMaxC= 1.00D-01 BMatC= 6.88D-13 BMatP= 1.92D-11
 IDIUse=1 WtCom= 1.00D+00 WtEn= 0.00D+00
 Coeff-Com: -0.287D-05 0.591D-04 0.219D-04 0.378D-04-0.579D-03-0.224D-02
 Coeff-Com: -0.349D-02 0.447D-03 0.449D-01 0.193D+00 0.768D+00
 Coeff:     -0.287D-05 0.591D-04 0.219D-04 0.378D-04-0.579D-03-0.224D-02
 Coeff:     -0.349D-02 0.447D-03 0.449D-01 0.193D+00 0.768D+00
 Gap=     0.207 Goal=   None    Shift=    0.000
 RMSDP=1.52D-08 MaxDP=1.30D-06 DE=-1.99D-11 OVMax= 5.60D-07

 Cycle  12  Pass 1  IDiag  1:
 RMSU=  5.86D-09    CP:  9.93D-01  1.05D+00  5.58D-01  1.07D+00  9.27D-01
                    CP:  7.72D-01  7.56D-01  1.06D+00  8.97D-01  7.97D-01
                    CP:  9.91D-01
 E= -398.978269348556     Delta-E=       -0.000000000001 Rises=F Damp=F
 DIIS: error= 2.11D-08 at cycle  12 NSaved=  12.
 NSaved=12 IEnMin=12 EnMin= -398.978269348556     IErMin=12 ErrMin= 2.11D-08
 ErrMax= 2.11D-08 EMaxC= 1.00D-01 BMatC= 1.55D-13 BMatP= 6.88D-13
 IDIUse=1 WtCom= 1.00D+00 WtEn= 0.00D+00
 Coeff-Com: -0.116D-05 0.143D-04 0.892D-05 0.497D-04-0.106D-04-0.411D-03
 Coeff-Com: -0.159D-02-0.648D-02-0.316D-02 0.431D-01 0.383D+00 0.586D+00
 Coeff:     -0.116D-05 0.143D-04 0.892D-05 0.497D-04-0.106D-04-0.411D-03
 Coeff:     -0.159D-02-0.648D-02-0.316D-02 0.431D-01 0.383D+00 0.586D+00
 Gap=     0.207 Goal=   None    Shift=    0.000
 RMSDP=4.47D-09 MaxDP=2.62D-07 DE=-5.68D-13 OVMax= 2.23D-07

 Error on total polarization charges =  0.01340
 SCF Done:  E(RB3LYP) =  -398.978269349     A.U. after   12 cycles
             Convg  =    0.4467D-08             -V/T =  2.0039
 KE= 3.974442653422D+02 PE=-1.585575442059D+03 EE= 4.646265682933D+02
 Leave Link  502 at Sat Apr 16 01:51:56 2016, MaxMem=   33554432 cpu:     249.0
 (Enter c:\G09w05\l701.exe)
 Compute integral first derivatives.
 ... and contract with generalized density number  0.
 D1PCM: C-PCM CHGder 1st derivatives, ID1Alg=3 FixD1E=F DoIter=F DoCFld=F I1PDM=0.
 GePol: Maximum number of non-zero 1st derivatives   =     191
 Leave Link  701 at Sat Apr 16 01:52:01 2016, MaxMem=   33554432 cpu:       5.0
 (Enter c:\G09w05\l702.exe)
 L702 exits ... SP integral derivatives will be done elsewhere.
 Leave Link  702 at Sat Apr 16 01:52:01 2016, MaxMem=   33554432 cpu:       0.0
 (Enter c:\G09w05\l703.exe)
 Compute integral first derivatives, UseDBF=F ICtDFT=           0.
 Integral derivatives from FoFDir, PRISM(SPDF).
 Calling FoFJK, ICntrl=      2127 FMM=F ISym2X=0 I1Cent= 0 IOpClX= 0 NMat=1 NMatS=1 NMatT=0.
 FoFCou: FMM=F IPFlag=           0 FMFlag=      100000 FMFlg1=         800
         NFxFlg=           0 DoJE=F BraDBF=F KetDBF=F FulRan=T
         Omega=  0.000000  0.000000  1.000000  0.000000  0.000000 ICntrl=    2127 IOpCl=  0
         NMat0=    1 NMatS0=    1 NMatT0=    0 NMatD0=    1 NMtDS0=    0 NMtDT0=    0
         I1Cent=           0 NGrid=           0.
 Symmetry not used in FoFCou.
 Leave Link  703 at Sat Apr 16 01:52:58 2016, MaxMem=   33554432 cpu:      57.0
 (Enter c:\G09w05\l716.exe)
 Dipole        =-4.30290885D-01 1.39723669D-01 1.58478732D+00
 -------------------------------------------------------------------
 Center     Atomic                   Forces (Hartrees/Bohr)
 Number     Number              X              Y              Z
 -------------------------------------------------------------------
      1        7           0.000763184   -0.001731132   -0.019572680
      2        1           0.000328659   -0.001977973    0.001542311
      3        6          -0.022149086   -0.051377103   -0.015703092
      4        1           0.031514725    0.051798754    0.001254953
      5        6          -0.003358265    0.000450115   -0.009978717
      6        6           0.002195040    0.018302442    0.045860425
      7        1           0.000442476    0.000240353    0.000231525
      8        1           0.000278309    0.000105663    0.001237525
      9        8           0.000637775   -0.000423546    0.001196597
     10        8          -0.007015214   -0.004541000   -0.004729491
     11        1          -0.000140558   -0.000282482    0.000503643
     12        1           0.000090499    0.001272629    0.000320327
     13        8          -0.002933377   -0.011326539   -0.004914803
     14        1          -0.000654169   -0.000510183    0.002751477
 -------------------------------------------------------------------
 Cartesian Forces:  Max     0.051798754 RMS     0.015636708
 Leave Link  716 at Sat Apr 16 01:52:58 2016, MaxMem=   33554432 cpu:       0.0
 (Enter c:\G09w05\l103.exe)

[...]
 ! R8    R(4,13)                 1.2175         -DE/DX =    0.0                 !
 ! R9    R(5,7)                  1.0952         -DE/DX =    0.0                 !
 ! R10   R(5,8)                  1.1024         -DE/DX =    0.0                 !
 ! R11   R(5,9)                  1.4323         -DE/DX =    0.0                 !
 ! R12   R(6,10)                 1.3108         -DE/DX =    0.0                 !
 ! R13   R(6,13)                 1.2864         -DE/DX =    0.0                 !
 ! R14   R(9,11)                 0.9632         -DE/DX =    0.0                 !
 ! R15   R(10,14)                0.9717         -DE/DX =    0.0                 !
 ! A1    A(2,1,3)              113.679          -DE/DX =    0.0                 !
 ! A2    A(2,1,12)             107.8874         -DE/DX =    0.0                 !
 ! A3    A(3,1,12)             112.0629         -DE/DX =    0.0                 !
 ! A4    A(1,3,4)              141.1512         -DE/DX =    0.0                 !
 ! A5    A(1,3,5)              109.6364         -DE/DX =    0.0                 !
 ! A6    A(1,3,6)              118.921          -DE/DX =    0.0                 !
 ! A7    A(4,3,5)              100.925          -DE/DX =    0.0                 !
 ! A8    A(5,3,6)              116.2681         -DE/DX =    0.0                 !
 ! A9    A(3,4,13)             105.3317         -DE/DX =    0.0                 !
 ! A10   A(3,5,7)              106.4191         -DE/DX =    0.0                 !
 ! A11   A(3,5,8)              110.9526         -DE/DX =    0.0                 !
 ! A12   A(3,5,9)              111.8347         -DE/DX =    0.0                 !
 ! A13   A(7,5,8)              107.6366         -DE/DX =    0.0                 !
 ! A14   A(7,5,9)              110.8676         -DE/DX =    0.0                 !
 ! A15   A(8,5,9)              109.0349         -DE/DX =    0.0                 !
 ! A16   A(3,6,10)             127.7986         -DE/DX =    0.0                 !
 ! A17   A(3,6,13)             110.0305         -DE/DX =    0.0                 !
 ! A18   A(4,6,10)             164.2928         -DE/DX =    0.0                 !
 ! A19   A(10,6,13)            121.8511         -DE/DX =    0.0                 !
 ! A20   A(5,9,11)             107.9942         -DE/DX =    0.0                 !
 ! A21   A(6,10,14)            111.0903         -DE/DX =    0.0                 !
 ! D1    D(2,1,3,4)            156.0382         -DE/DX =    0.0                 !
 ! D2    D(2,1,3,5)            -64.1618         -DE/DX =    0.0                 !
 ! D3    D(2,1,3,6)             73.0599         -DE/DX =    0.0                 !
 ! D4    D(12,1,3,4)            33.3803         -DE/DX =    0.0                 !
 ! D5    D(12,1,3,5)           173.1803         -DE/DX =    0.0                 !
 ! D6    D(12,1,3,6)           -49.598          -DE/DX =    0.0                 !
 ! D7    D(1,3,4,13)          -112.1917         -DE/DX =    0.0                 !
 ! D8    D(5,3,4,13)           106.0618         -DE/DX =    0.0                 !
 ! D9    D(1,3,5,7)            -50.0848         -DE/DX =    0.0                 !
 ! D10   D(1,3,5,8)             66.7269         -DE/DX =    0.0                 !
 ! D11   D(1,3,5,9)           -171.2911         -DE/DX =    0.0                 !
 ! D12   D(4,3,5,7)            105.5628         -DE/DX =    0.0                 !
 ! D13   D(4,3,5,8)           -137.6255         -DE/DX =    0.0                 !
 ! D14   D(4,3,5,9)            -15.6435         -DE/DX =    0.0                 !
 ! D15   D(6,3,5,7)            171.4382         -DE/DX =    0.0                 !
 ! D16   D(6,3,5,8)            -71.7501         -DE/DX =    0.0                 !
 ! D17   D(6,3,5,9)             50.2319         -DE/DX =    0.0                 !
 ! D18   D(1,3,6,10)           -29.7794         -DE/DX =    0.0                 !
 ! D19   D(1,3,6,13)           143.7472         -DE/DX =    0.0                 !
 ! D20   D(5,3,6,10)           104.7141         -DE/DX =    0.0                 !
 ! D21   D(5,3,6,13)           -81.7593         -DE/DX =    0.0                 !
 ! D22   D(3,4,6,13)          -170.2131         -DE/DX =    0.0                 !
 ! D23   D(3,5,9,11)          -165.3298         -DE/DX =    0.0                 !
 ! D24   D(7,5,9,11)            76.0746         -DE/DX =    0.0                 !
 ! D25   D(8,5,9,11)           -42.2538         -DE/DX =    0.0                 !
 ! D26   D(3,6,10,14)          165.2464         -DE/DX =    0.0                 !
 ! D27   D(4,6,10,14)           38.8112         -DE/DX =    0.0                 !
 ! D28   D(13,6,10,14)          -7.5902         -DE/DX =    0.0                 !
 --------------------------------------------------------------------------------
 GradGradGradGradGradGradGradGradGradGradGradGradGradGradGradGradGradGrad

 Leave Link  103 at Sat Apr 16 04:02:56 2016, MaxMem=   33554432 cpu:       0.0
 (Enter c:\G09w05\l9999.exe)

 Test job not archived.
 1|1|UNPC-WIN-20150318OUM|Freq|RB3LYP|6-311++G(d,p)|C3H7N1O3|ADMINISTRA
 TOR|16-Apr-2016|0||#P Geom=AllCheck Guess=TCheck SCRF=Check Test GenCh
 k RB3LYP/6-311++G(d,p) Freq||Ser-S-opt-freq-cpcm-w-tsa2-6-311++gdp||0,
 1|N,-0.0764443676,2.0080982132,0.0452755984|H,-0.0130047582,2.28152556
 93,1.0256394059|C,0.0821747995,0.5868888906,-0.1729175813|H,-0.2876724
 964,-0.5547365309,-1.216207415|C,1.4885754372,0.1585845352,0.238156029
 4|C,-0.9964872012,-0.3052206176,0.2050284183|H,2.1794290797,0.85155310
 45,-0.2537995906|H,1.6299669323,0.2623876185,1.3264931374|O,1.76595210
 44,-1.1942015923,-0.1420211554|O,-1.8712143829,-0.1452441678,1.1680206
 933|H,2.5521902378,-1.4818736455,0.3342281926|H,-0.9570209193,2.352723
 1394,-0.3174331189|O,-1.0864676713,-1.2706378258,-0.6402987369|H,-2.61
 76048438,-0.7594032508,1.0680191127||Version=IA32W-G09RevB.01|HF=-398.
 9828363|RMSD=4.995e-009|RMSF=1.144e-005|ZeroPoint=0.1055849|Thermal=0.
 1135968|Dipole=-0.7456945,0.1102961,1.3854016|DipoleDeriv=-0.5486899,-
 0.1188222,0.0928734,-0.1002968,-0.9070731,0.1500834,0.1441968,-0.04249
 99,-0.2537371,0.3313088,0.1673636,0.009274,0.0798594,0.1312826,-0.0222
 084,-0.0456246,-0.2120338,-0.0233318,-0.674949,-0.2880348,0.1141932,-0
 .2223447,0.287841,0.0150871,0.177992,0.2960658,-0.633621,0.4792639,0.5
 154527,0.2665916,0.3460549,0.9165513,0.3701812,-0.0182788,-0.0775677,0
 .0390055,0.8419456,-0.1140831,0.059803,-0.3986545,0.8917553,0.0603518,
 -0.1290023,0.0648974,0.7475558,1.6901582,0.5254279,-1.1136385,0.678237
 1,1.0481817,0.0226753,-0.8599988,0.4360891,1.5034251,-0.0832368,-0.123
 3649,0.0330433,-0.0951198,-0.1201242,0.0415455,0.0629619,0.0740318,-0.
 0020425,-0.1180071,-0.011717,-0.0405062,0.0946404,-0.0309421,-0.033832
 ,-0.1692525,-0.1110541,-0.3083578,-0.6258666,0.2607314,0.1640535,0.317
 3401,-1.1463479,-0.0425504,0.1802195,-0.0643879,-0.5577571,-1.2572609,
 -0.1067702,0.8308029,-0.0577706,-0.4087275,0.0878133,0.7395535,0.04727
 45,-1.0217767,0.2767345,0.0279105,-0.0968343,-0.008674,0.3353291,-0.04
 55088,-0.1235905,-0.0193754,0.3282015,0.0708705,0.082896,-0.0789072,-0
 .006266,0.1921651,-0.0754864,-0.0252821,-0.0867969,0.2540656,-0.815723
 2,-0.805472,-0.2423052,-0.6647489,-1.5873318,-0.4192403,0.1227171,-0.2
 041568,-0.4428851,0.4334521,-0.0115179,0.0015565,0.0377435,0.3974405,-
 0.1089112,-0.0566112,-0.1004862,0.3712556|Polar=86.1681751,9.6501152,9
 0.1699486,-4.9145632,6.5477545,77.5101609|PG=C01 [X(C3H7N1O3)]|NImag=1
 ||0.44638784,-0.17530418,0.42170303,0.17978418,0.08325649,0.53387945,-
 0.03239285,0.02482161,-0.01011996,0.03574020,0.01386888,-0.06319192,-0
 .07496602,-0.01083162,0.07879127,-0.04920084,-0.09303180,-0.38201532,0
 .04011488,0.09862199,0.39415751,-0.06918371,0.01102854,-0.00410532,-0.
 00114463,-0.00036090,0.00295235,0.46550416,0.03979210,-0.21219785,-0.0
 4969777,-0.00527638,-0.01982326,-0.00458749,0.05483952,0.51974933,-0.0
 1164636,-0.00164452,-0.08160254,0.00412259,-0.03934159,-0.00034199,0.0
 3412507,0.01559076,0.18089335,0.00047119,0.00101963,0.01614482,-0.0011
 5677,0.00491525,0.00164523,-0.03005271,0.02372488,0.02895176,0.0096672
 3,0.00102577,-0.00336590,0.01567666,-0.00010586,0.00631698,0.00238960,
 -0.01199417,0.02021576,0.04301885,-0.07912853,-0.09175905,0.00161494,-
 0.00184208,0.00347330,0.00094460,0.00134192,0.00053722,0.00202420,0.00
 745656,-0.03342525,-0.02766753,0.01100466,0.12599722,-0.00523991,0.003
 66573,-0.00661558,0.00128480,-0.00176568,0.00001545,-0.15632114,0.0208
 8353,-0.02824558,-0.00362821,-0.00534324,-0.00306617,0.48859791,0.0349
 5219,-0.02228277,0.01071734,0.00118343,0.00087925,0.00012213,-0.003306
 87,-0.07606106,0.00413867,-0.00129299,0.00510704,-0.00127387,0.0515911
 5,0.47439826,0.00592922,-0.00721116,0.00045634,0.00335749,-0.00148257,
 0.00118389,-0.05608030,0.01401936,-0.04732124,-0.02194971,-0.01417180,
 -0.00333630,-0.01314122,-0.03340096,0.53648544,0.00594724,0.00665638,-
 0.00841737,-0.00093719,-0.00068180,0.00267625,-0.16452901,-0.08653600,
 -0.02671091,0.03092859,0.04993663,0.02079440,-0.04352138,-0.00824102,0
 .02936212,0.52470403,-0.01876473,-0.03945948,-0.00110077,-0.00101017,-
 0.00196556,0.00165849,-0.02315890,-0.14055197,-0.04104637,0.07299995,0
 .09646510,-0.02285754,-0.01135787,0.02347011,0.01674026,0.08142249,0.4
 6293767,-0.00507440,-0.00147302,-0.00533869,-0.00244982,-0.00546463,0.
 00023035,0.01535265,0.01352049,-0.06240296,0.05879006,0.01656268,-0.07
 276732,-0.00263439,-0.01093099,-0.00400009,-0.19127257,0.17907525,0.54
 821312,0.00300809,-0.00075760,-0.00025448,-0.00037442,-0.00006148,0.00
 023960,-0.02557669,-0.01841966,0.00802076,0.00300743,0.00226823,-0.000
 13076,-0.15204821,-0.09690125,0.07682031,-0.00532308,0.00254660,-0.001
 20842,0.16378960,0.00168240,0.00121361,0.00044191,0.00001242,-0.000075
 22,0.00024876,0.00230603,0.00377161,-0.00213296,-0.00010774,-0.0000682
 2,0.00004727,-0.09509150,-0.13235202,0.07050995,0.00170241,-0.00095045
 ,0.00033679,0.10368607,0.16154750,0.00066225,-0.00082375,0.00026664,0.
 00011329,0.00021591,-0.00021998,-0.01052981,-0.00557959,0.00358723,0.0
 0096300,0.00106351,0.00072830,0.08024189,0.07240758,-0.11202753,-0.001
 40786,0.00100663,0.00033920,-0.08021589,-0.07612927,0.11265908,0.00179
 865,-0.00172404,0.00098089,0.00023685,0.00079760,0.00096425,-0.0178548
 5,-0.00106785,-0.02838747,-0.00225674,0.00076521,-0.00066949,-0.051137
 79,-0.00585273,-0.02746102,0.00745963,0.00720330,-0.00406754,0.0039091
 1,-0.00020045,0.02032180,0.05650719,-0.00076189,0.00160216,0.00008253,
 -0.00020242,-0.00018702,-0.00088143,0.00539361,0.00210095,0.00690704,0
 .00056776,-0.00120497,0.00003432,-0.00445045,-0.04875836,-0.00282210,-
 0.00252408,-0.00181856,0.00010391,0.00142946,0.00422684,0.01869450,-0.
 00041204,0.06261337,-0.00005159,0.00131785,0.00149566,-0.00052652,0.00
 091762,-0.00069534,-0.00936692,-0.00112037,-0.00686601,0.00054899,0.00
 215372,0.00039064,-0.01976835,-0.01135834,-0.27570513,0.00437203,0.002
 80981,-0.00008269,-0.00140750,0.00061634,-0.01617799,0.02932291,0.0202
 8403,0.30176006,-0.00758273,0.00532431,-0.00162941,-0.00049012,0.00007
 310,0.00004824,0.00089782,0.03279498,0.00778772,0.00101156,0.00121188,
 -0.00010560,-0.08228432,0.03374951,-0.00307903,0.00137921,-0.00238107,
 -0.00240889,0.01068524,-0.01286283,-0.00833748,0.00201063,0.00128196,0
 .00209316,0.42794801,0.00473304,-0.00218444,0.00063675,-0.00016845,-0.
 00000494,-0.00018744,0.01007413,-0.01494456,0.00006417,-0.00261601,-0.
 00352187,0.00054876,-0.00223961,-0.18625440,-0.05402150,-0.00276666,-0
 .00518112,0.00228838,0.00735937,-0.03824636,-0.01006846,0.00645506,-0.
 02291434,-0.01140247,-0.16020977,0.33951754,-0.00309962,0.00261924,-0.
 00012932,-0.00061985,0.00063613,-0.00011324,0.00299084,0.00993111,0.00
 386713,-0.00051433,-0.00008075,0.00023489,-0.01969845,-0.02711944,-0.0
 8448097,-0.00124234,-0.00109918,0.00053949,-0.00496080,0.00751871,0.00
 983690,0.00807214,-0.04161679,-0.00620626,0.22634991,0.00511546,0.2173
 1688,-0.00035354,-0.00190844,-0.00074404,0.00170087,-0.00003271,-0.002
 14783,-0.02535094,0.01153242,0.03910160,-0.00381804,-0.00914127,0.0107
 6183,0.00686047,-0.00561794,0.00165988,-0.20742852,0.01714555,0.150849
 67,-0.00161330,0.00008267,-0.00099829,-0.00161285,0.00092711,-0.002679
 50,-0.00120651,0.00212472,-0.00033208,0.51150461,-0.00154838,0.0018501
 7,0.00118217,0.00041548,0.00036824,-0.00022221,-0.01392373,0.01098083,
 0.01272763,-0.00723658,-0.00934060,-0.00284719,0.00018166,-0.00323134,
 0.00240653,-0.02007472,-0.10352844,-0.02405439,-0.00119555,0.00035044,
 -0.00057309,0.00008548,0.00001893,-0.00048544,-0.00014701,0.00096487,-
 0.00010148,0.21825701,0.30129498,0.00000565,0.00018416,0.00083341,-0.0
 0110024,0.00050371,0.00120388,0.02241123,0.00201690,-0.00947149,-0.004
 82081,-0.00962771,0.00062892,-0.00588147,0.00518730,0.00139317,0.11659
 537,-0.05168991,-0.21705535,0.00091114,-0.00010086,0.00059036,0.002072
 56,-0.00053086,0.00133935,0.00169448,-0.00212625,0.00009577,-0.1499659
 7,0.12021184,0.31520476,-0.00021298,0.00006731,0.00020519,-0.00016126,
 0.00019796,0.00008214,0.00047193,0.00192981,-0.00009291,-0.00018565,0.
 00023446,0.00039813,-0.00600717,-0.00292724,-0.00463551,0.00025717,-0.
 00077727,-0.00032852,0.00067955,-0.00114489,-0.00019317,0.00110598,-0.
 00193649,-0.00042167,-0.34550068,0.13465352,-0.20560544,-0.00009885,0.
 00000215,0.00014018,0.35002679,0.00167973,-0.00104918,0.00023935,0.000
 12449,-0.00006787,-0.00003227,-0.00234625,-0.00442620,-0.00143735,0.00
 003074,-0.00133074,0.00042465,0.03482303,-0.01609111,0.01987520,0.0003
 7399,-0.00009939,-0.00108355,0.00007897,0.00029449,0.00056570,-0.00013
 507,0.00169336,-0.00070688,0.09640287,-0.07222456,0.04168255,-0.000126
 90,0.00001152,0.00046381,-0.13088681,0.09260763,0.00092346,-0.00018426
 ,0.00111049,-0.00018723,0.00019830,0.00007035,-0.00008634,-0.00212219,
 -0.00075475,-0.00003377,-0.00007849,0.00029162,0.01300366,-0.00842280,
 0.00315771,0.00048179,-0.00015444,0.00034562,-0.00038559,-0.00051104,-
 0.00016875,0.00070937,-0.00063064,0.00056629,-0.22466125,0.07172224,-0
 .14201184,-0.00017578,0.00004073,-0.00007294,0.21043416,-0.05954723,0.
 13785313,-0.33573102,0.13546504,-0.15095676,-0.00315278,-0.00104196,0.
 00446657,-0.00355427,-0.00769691,0.00308667,0.00023419,0.00031030,-0.0
 0018341,0.00036043,0.00136757,0.00110095,0.00364113,-0.00088940,0.0007
 3105,0.00057847,0.00022456,-0.00004761,0.00007039,-0.00008170,-0.00017
 104,-0.00055280,0.00060400,-0.00068407,-0.00046904,0.00035470,0.000216
 83,0.00001898,0.00026198,0.00008472,0.33946518,0.10523042,-0.07928370,
 0.02438562,-0.00985266,0.00346032,-0.00201523,0.02983626,-0.01684758,0
 .01337257,-0.00078396,-0.00107848,-0.00077263,-0.00154293,-0.00556367,
 -0.00138636,0.00356092,0.00085937,0.00100769,0.00011488,0.00016726,-0.
 00030306,-0.00035514,0.00023139,0.00007696,0.00175286,-0.00021085,0.00
 061029,-0.00089424,0.00034012,0.00091569,0.00007342,-0.00029875,-0.000
 30369,-0.12817294,0.09787369,-0.11812433,0.02436396,-0.08957486,-0.034
 47332,0.01305915,-0.01463352,0.00893685,0.00064998,0.00219450,0.000121
 81,0.00014683,0.00041687,0.00006439,-0.00134955,0.00046610,-0.00081560
 ,0.00042722,0.00004487,-0.00039232,-0.00031774,-0.00011495,0.00054886,
 -0.00016390,0.00038542,0.00100460,-0.00133987,0.00060970,0.00007100,-0
 .00047786,-0.00022720,0.00008659,-0.00031424,-0.00005499,0.14325606,-0
 .03429149,0.10056802,-0.00781547,-0.00839946,-0.01397921,0.00094266,-0
 .00503699,-0.00159065,0.02251043,-0.07103462,-0.03440890,-0.00042363,0
 .05441360,-0.00641298,0.00330949,0.00047199,0.00800333,-0.11771406,-0.
 10194492,-0.02423904,-0.00091407,-0.00021817,-0.00056023,-0.00035908,0
 .00072657,-0.00184545,-0.00644274,0.00215595,-0.00060617,0.00495404,0.
 03583785,0.04083010,-0.00038627,-0.00034517,-0.00004801,-0.00082673,0.
 00124719,-0.00041916,0.09800592,-0.00677465,-0.00440402,-0.01081802,0.
 00122494,-0.00442841,-0.00242075,-0.06037979,-0.07342714,-0.00258459,-
 0.01395763,-0.01958097,0.01018013,0.01227480,-0.01313857,-0.01046598,-
 0.02305712,-0.29212456,-0.17518435,0.00012966,-0.00006269,-0.00041164,
 -0.00597792,0.00260327,-0.00347157,0.00285299,0.00533484,0.00197110,0.
 00256710,0.01239167,-0.02629095,0.00051110,0.00097615,-0.00004063,-0.0
 0080578,0.00016666,-0.00028980,0.09013540,0.38703170,-0.00119395,-0.00
 500837,0.01671996,0.00058860,0.00555340,0.00080114,-0.01127357,0.00416
 840,0.04966671,-0.05214339,-0.06887499,-0.02280994,0.00460165,0.000464
 25,-0.01454988,0.01733747,-0.11129602,-0.18749522,0.00243378,-0.000362
 38,0.00054463,-0.00215251,0.00043883,-0.00002253,0.00137043,-0.0011885
 2,0.00039656,0.01071648,-0.04603173,-0.05120849,-0.00004797,-0.0001017
 0,-0.00031004,-0.00083174,-0.00126665,-0.00008817,0.04018947,0.2206210
 0,0.20794231,0.00089921,0.00004516,-0.00029296,-0.00009537,-0.00003966
 ,-0.00026564,0.00418361,0.00453420,0.00429595,-0.00379845,-0.00445300,
 0.00169784,-0.00022499,0.00082418,0.00011350,-0.03486376,-0.02103356,0
 .00796016,0.00019227,-0.00007098,-0.00001190,0.00012287,0.00004260,-0.
 00009855,0.00012744,-0.00015931,-0.00004975,-0.28306840,-0.21100834,-0
 .02310905,-0.00000753,0.00006440,-0.00005919,-0.00008213,-0.00021407,0
 .00013457,0.00515950,0.00125690,-0.00959476,0.31145573,0.00018929,0.00
 105030,-0.00003624,-0.00033482,-0.00007184,0.00033766,0.00199251,0.001
 46116,-0.00763231,0.00186524,0.00314591,-0.00144497,-0.00162862,-0.000
 12136,0.00141113,0.00022858,0.00194728,0.00529576,-0.00027769,0.000183
 21,-0.00006496,0.00041860,-0.00020702,0.00036875,0.00015622,-0.0001298
 1,-0.00006694,-0.23491510,-0.21247140,-0.03911688,0.00000298,0.0000046
 6,0.00003412,0.00010055,0.00018424,-0.00010269,0.00199078,-0.00133792,
 0.00288449,0.23021149,0.20636260,-0.00052861,-0.00052274,0.00042546,0.
 00023549,0.00020667,-0.00016495,0.00264907,-0.00424614,0.00197731,-0.0
 0003613,0.00081724,-0.00036016,0.00112417,0.00081867,-0.00172153,0.038
 24721,0.02752656,-0.00057033,0.00053017,-0.00016548,0.00015685,-0.0002
 5475,0.00010058,-0.00018145,-0.00012689,-0.00004123,0.00004433,-0.0561
 1698,-0.06177551,-0.04325413,-0.00002120,-0.00002804,-0.00002190,-0.00
 006822,-0.00002973,0.00000820,-0.00491310,-0.00079396,0.00041294,0.019
 27978,0.03813309,0.04324935||0.00000858,0.00000218,-0.00000227,0.00000
 770,0.00000216,0.00000225,-0.00001851,0.00001605,0.00001377,-0.0000212
 8,-0.00001919,0.00000585,-0.00000594,-0.00000213,-0.00001075,0.0000195
 7,-0.00001497,-0.00000953,-0.00000563,0.00000103,-0.00001856,0.0000121
 8,0.00000017,-0.00001141,-0.00000153,0.00000150,-0.00001295,-0.0000006
 3,0.00000720,0.00002153,0.00000240,0.00000079,-0.00002065,-0.00000425,
 -0.00000083,0.00000863,-0.00000355,0.00000932,0.00000796,0.00001090,-0
 .00000330,0.00002614|||@


 A ROPE OVER THE TOP OF A FENCE HAS THE SAME LENGTH ON EACH SIDE.
 WEIGHS 1/3 POUND PER FOOT.  ON ONE END HANGS A MONKEY HOLDING A
 BANANA, AND ON THE OTHER END A WEIGHT EQUAL TO THE WEIGHT
 OF THE MONKEY.  THE BANANA WEIGHS TWO OUNCES PER INCH.
 THE ROPE IS AS LONG AS THE AGE OF THE MONKEY, 
 AND THE WEIGHT OF THE MONKEY (IN OUNCES) IS AS MUCH
 AS THE AGE OF THE MONKEY'S MOTHER.  THE COMBINED AGES OF MONKEY
 AND MOTHER ARE THIRTY YEARS.  HALF THE WEIGHT OF THE MONKEY,
  PLUS THE WEIGHT OF THE BANANA, IS ONE FOURTH AS MUCH AS THE WEIGHT
 OF THE WEIGHT AND THE ROPE.
 THE MONKEY'S MOTHER IS HALF AS OLD AS THE MONKEY WILL BE
 WHEN IT IS 3 TIMES AS OLD AS ITS MOTHER WAS WHEN
 SHE WAS HALF AS OLD AS THE MONKEY WILL BE WHEN IT IS
 AS OLD AS ITS MOTHER WILL BE WHEN SHE IS 4 TIMES AS
 OLD AS THE MONKEY WAS WHEN IT WAS TWICE AS OLD AS 
 ITS MOTHER WAS WHEN SHE WAS ONE THIRD AS OLD AS THE
 MONKEY WAS WHEN IT WAS AS OLD AS ITS MOTHER WAS WHEN 
 SHE WAS 3 TIMES AS OLD AS THE MONKEY WAS WHEN IT WAS AS OLD AS ITS
 MOTHER WAS WHEN SHE WAS 3 TIMES AS OLD AS THE MONKEY 
 WAS WHEN IT WAS ONE FOURTH WAS OLD AS IT IS NOW.

 HOW LONG IS THE BANANA?
 Job cpu time:  0 days  0 hours 24 minutes 58.0 seconds.
 File lengths (MBytes):  RWF=     79 Int=      0 D2E=      0 Chk=      9 Scr=      1
 Normal termination of Gaussian 09 at Sat Apr 16 04:02:56 2016.
