 Entering Gaussian System, Link 0=g09
 Input=Ala-S-opt-freq-tsa3-6-31g.com
 Output=Ala-S-opt-freq-tsa3-6-31g.log
 Initial command:
 /usr/local/gau/g09/l1.exe "/tmp/Gau-3395.inp" -scrdir="/tmp/"
 Entering Link 1 = /usr/local/gau/g09/l1.exe PID=      3397.
  
 Copyright (c) 1988,1990,1992,1993,1995,1998,2003,2009,2013,
            Gaussian, Inc.  All Rights Reserved.
  
 This is part of the Gaussian(R) 09 program.  It is based on
 the Gaussian(R) 03 system (copyright 2003, Gaussian, Inc.),
 the Gaussian(R) 98 system (copyright 1998, Gaussian, Inc.),
 the Gaussian(R) 94 system (copyright 1995, Gaussian, Inc.),
 the Gaussian 92(TM) system (copyright 1992, Gaussian, Inc.),
 the Gaussian 90(TM) system (copyright 1990, Gaussian, Inc.),
 the Gaussian 88(TM) system (copyright 1988, Gaussian, Inc.),
 the Gaussian 86(TM) system (copyright 1986, Carnegie Mellon
 University), and the Gaussian 82(TM) system (copyright 1983,
 Carnegie Mellon University). Gaussian is a federally registered
 trademark of Gaussian, Inc.
  
 This software contains proprietary and confidential information,
 including trade secrets, belonging to Gaussian, Inc.
  
 This software is provided under written license and may be
 used, copied, transmitted, or stored only in accord with that
 written license.
  
 The following legend is applicable only to US Government
 contracts under FAR:
  
                    RESTRICTED RIGHTS LEGEND
  
 Use, reproduction and disclosure by the US Government is
 subject to restrictions as set forth in subparagraphs (a)
 and (c) of the Commercial Computer Software - Restricted
 Rights clause in FAR 52.227-19.
  
 Gaussian, Inc.
 340 Quinnipiac St., Bldg. 40, Wallingford CT 06492
  
  
 ---------------------------------------------------------------
 Warning -- This program may not be used in any manner that
 competes with the business of Gaussian, Inc. or will provide
 assistance to any competitor of Gaussian, Inc.  The licensee
 of this program is prohibited from giving any competitor of
 Gaussian, Inc. access to this program.  By using this program,
 the user acknowledges that Gaussian, Inc. is engaged in the
 business of creating and licensing software in the field of
 computational chemistry and represents and warrants to the
 licensee that it is not a competitor of Gaussian, Inc. and that
 it will not use this program in any manner prohibited above.
 ---------------------------------------------------------------
  

 Cite this work as:
 Gaussian 09, Revision D.01,
 M. J. Frisch, G. W. Trucks, H. B. Schlegel, G. E. Scuseria, 
 M. A. Robb, J. R. Cheeseman, G. Scalmani, V. Barone, B. Mennucci, 
 G. A. Petersson, H. Nakatsuji, M. Caricato, X. Li, H. P. Hratchian, 
 A. F. Izmaylov, J. Bloino, G. Zheng, J. L. Sonnenberg, M. Hada, 
 M. Ehara, K. Toyota, R. Fukuda, J. Hasegawa, M. Ishida, T. Nakajima, 
 Y. Honda, O. Kitao, H. Nakai, T. Vreven, J. A. Montgomery, Jr., 
 J. E. Peralta, F. Ogliaro, M. Bearpark, J. J. Heyd, E. Brothers, 
 K. N. Kudin, V. N. Staroverov, T. Keith, R. Kobayashi, J. Normand, 
 K. Raghavachari, A. Rendell, J. C. Burant, S. S. Iyengar, J. Tomasi, 
 M. Cossi, N. Rega, J. M. Millam, M. Klene, J. E. Knox, J. B. Cross, 
 V. Bakken, C. Adamo, J. Jaramillo, R. Gomperts, R. E. Stratmann, 
 O. Yazyev, A. J. Austin, R. Cammi, C. Pomelli, J. W. Ochterski, 
 R. L. Martin, K. Morokuma, V. G. Zakrzewski, G. A. Voth, 
 P. Salvador, J. J. Dannenberg, S. Dapprich, A. D. Daniels, 
 O. Farkas, J. B. Foresman, J. V. Ortiz, J. Cioslowski, 
 and D. J. Fox, Gaussian, Inc., Wallingford CT, 2013.
 
 ******************************************
 Gaussian 09:  ES64L-G09RevD.01 24-Apr-2013
                13-Apr-2016 
 ******************************************
 %chk=Ala-S-opt-freq-tsa3-6-31g.chk
 ------------------------------------------------
 #p opt=(calcfc,ts) freq rb3lyp/6-31g iop(1/11=1)
 ------------------------------------------------
 1/5=1,10=4,11=1,14=-1,18=20,26=3,38=1/1,3;
 2/9=110,12=2,17=6,18=5,40=1/2;
 3/5=1,6=6,11=2,16=1,25=1,30=1,71=2,74=-5,116=1,140=1/1,2,3;
 4//1;
 5/5=2,38=5/2;
 8/6=4,10=90,11=11/1;
 11/6=1,8=1,9=11,15=111,16=1/1,2,10;
 10/6=1,13=1/2;
 6/7=2,8=2,9=2,10=2,28=1/1;
 7/10=1,18=20,25=1/1,2,3,16;
 1/5=1,10=4,11=1,14=-1,18=20,26=3/3(2);
 2/9=110/2;
 99//99;
 2/9=110/2;
 3/5=1,6=6,11=2,16=1,25=1,30=1,71=1,74=-5,116=1/1,2,3;
 4/5=5,16=3,69=1/1;
 5/5=2,38=5/2;
 7//1,2,3,16;
 1/5=1,11=1,14=-1,18=20,26=3/3(-5);
 2/9=110/2;
 6/7=2,8=2,9=2,10=2,19=2,28=1/1;
 99/9=1/99;
 Leave Link    1 at Wed Apr 13 10:12:00 2016, MaxMem=           0 cpu:         0.0
 (Enter /usr/local/gau/g09/l101.exe)
 -------------------------
 Ala-S-opt-freq-tsa3-6-31g
 -------------------------
 Symbolic Z-matrix:
 Charge =  0 Multiplicity = 1
 N                     1.08947   1.09247   0.17715 
 H                     2.0867    1.16839   0.09468 
 C                     0.47153  -0.15595   0.15191 
 H                    -2.10177  -1.63806  -0.55371 
 C                     1.37956  -1.35404   0.14423 
 C                    -0.86951  -0.26245   0.14544 
 H                     2.02507  -1.35695   1.03289 
 H                     0.79829  -2.27655   0.14125 
 H                     2.03478  -1.34699  -0.73829 
 O                    -1.64627   0.95257   0.01933 
 H                     0.52712   1.92025   0.08043 
 O                    -1.55976  -1.47798   0.24954 
 H                    -0.19839   0.86568   1.1851 
 
 Add virtual bond connecting atoms H13        and N1         Dist= 3.12D+00.
 Add virtual bond connecting atoms H13        and C3         Dist= 3.02D+00.
 Add virtual bond connecting atoms H13        and C6         Dist= 3.16D+00.
 Add virtual bond connecting atoms H13        and H11        Dist= 3.20D+00.
 NAtoms=     13 NQM=       13 NQMF=       0 NMMI=      0 NMMIF=      0
                NMic=       0 NMicF=      0.
                    Isotopes and Nuclear Properties:
 (Nuclear quadrupole moments (NQMom) in fm**2, nuclear magnetic moments (NMagM)
  in nuclear magnetons)

  Atom         1           2           3           4           5           6           7           8           9          10
 IAtWgt=          14           1          12           1          12          12           1           1           1          16
 AtmWgt=  14.0030740   1.0078250  12.0000000   1.0078250  12.0000000  12.0000000   1.0078250   1.0078250   1.0078250  15.9949146
 NucSpn=           2           1           0           1           0           0           1           1           1           0
 AtZEff=   0.0000000   0.0000000   0.0000000   0.0000000   0.0000000   0.0000000   0.0000000   0.0000000   0.0000000   0.0000000
 NQMom=    2.0440000   0.0000000   0.0000000   0.0000000   0.0000000   0.0000000   0.0000000   0.0000000   0.0000000   0.0000000
 NMagM=    0.4037610   2.7928460   0.0000000   2.7928460   0.0000000   0.0000000   2.7928460   2.7928460   2.7928460   0.0000000
 AtZNuc=   7.0000000   1.0000000   6.0000000   1.0000000   6.0000000   6.0000000   1.0000000   1.0000000   1.0000000   8.0000000

  Atom        11          12          13
 IAtWgt=           1          16           1
 AtmWgt=   1.0078250  15.9949146   1.0078250
 NucSpn=           1           0           1
 AtZEff=   0.0000000   0.0000000   0.0000000
 NQMom=    0.0000000   0.0000000   0.0000000
 NMagM=    2.7928460   0.0000000   2.7928460
 AtZNuc=   1.0000000   8.0000000   1.0000000
 Leave Link  101 at Wed Apr 13 10:12:01 2016, MaxMem=    33554432 cpu:         0.1
 (Enter /usr/local/gau/g09/l103.exe)

 GradGradGradGradGradGradGradGradGradGradGradGradGradGradGradGradGradGrad
 Berny optimization.
 Initialization pass.
                           ----------------------------
                           !    Initial Parameters    !
                           ! (Angstroms and Degrees)  !
 --------------------------                            --------------------------
 ! Name  Definition              Value          Derivative Info.                !
 --------------------------------------------------------------------------------
 ! R1    R(1,2)                  1.0035         calculate D2E/DX2 analytically  !
 ! R2    R(1,3)                  1.3932         calculate D2E/DX2 analytically  !
 ! R3    R(1,11)                 1.0054         calculate D2E/DX2 analytically  !
 ! R4    R(1,13)                 1.6511         calculate D2E/DX2 analytically  !
 ! R5    R(3,5)                  1.5033         calculate D2E/DX2 analytically  !
 ! R6    R(3,6)                  1.3453         calculate D2E/DX2 analytically  !
 ! R7    R(3,13)                 1.6            calculate D2E/DX2 analytically  !
 ! R8    R(4,12)                 0.9822         calculate D2E/DX2 analytically  !
 ! R9    R(5,7)                  1.0984         calculate D2E/DX2 analytically  !
 ! R10   R(5,8)                  1.0904         calculate D2E/DX2 analytically  !
 ! R11   R(5,9)                  1.0992         calculate D2E/DX2 analytically  !
 ! R12   R(6,10)                 1.4476         calculate D2E/DX2 analytically  !
 ! R13   R(6,12)                 1.4017         calculate D2E/DX2 analytically  !
 ! R14   R(6,13)                 1.6745         calculate D2E/DX2 analytically  !
 ! R15   R(11,13)                1.6908         calculate D2E/DX2 analytically  !
 ! A1    A(2,1,3)              120.4689         calculate D2E/DX2 analytically  !
 ! A2    A(2,1,11)             119.0538         calculate D2E/DX2 analytically  !
 ! A3    A(2,1,13)             146.6891         calculate D2E/DX2 analytically  !
 ! A4    A(3,1,11)             119.2059         calculate D2E/DX2 analytically  !
 ! A5    A(1,3,5)              116.508          calculate D2E/DX2 analytically  !
 ! A6    A(1,3,6)              120.8748         calculate D2E/DX2 analytically  !
 ! A7    A(5,3,6)              122.6153         calculate D2E/DX2 analytically  !
 ! A8    A(5,3,13)             139.9137         calculate D2E/DX2 analytically  !
 ! A9    A(3,5,7)              110.6686         calculate D2E/DX2 analytically  !
 ! A10   A(3,5,8)              110.6273         calculate D2E/DX2 analytically  !
 ! A11   A(3,5,9)              111.0413         calculate D2E/DX2 analytically  !
 ! A12   A(7,5,8)              108.2564         calculate D2E/DX2 analytically  !
 ! A13   A(7,5,9)              107.4144         calculate D2E/DX2 analytically  !
 ! A14   A(8,5,9)              108.7238         calculate D2E/DX2 analytically  !
 ! A15   A(3,6,10)             117.9609         calculate D2E/DX2 analytically  !
 ! A16   A(3,6,12)             123.9986         calculate D2E/DX2 analytically  !
 ! A17   A(10,6,12)            118.0403         calculate D2E/DX2 analytically  !
 ! A18   A(10,6,13)             72.7628         calculate D2E/DX2 analytically  !
 ! A19   A(12,6,13)            137.3472         calculate D2E/DX2 analytically  !
 ! A20   A(4,12,6)             110.6311         calculate D2E/DX2 analytically  !
 ! A21   A(1,13,6)              91.4971         calculate D2E/DX2 analytically  !
 ! A22   A(3,13,11)             78.2701         calculate D2E/DX2 analytically  !
 ! A23   A(6,13,11)            100.7506         calculate D2E/DX2 analytically  !
 ! D1    D(2,1,3,5)              6.2762         calculate D2E/DX2 analytically  !
 ! D2    D(2,1,3,6)           -174.2135         calculate D2E/DX2 analytically  !
 ! D3    D(11,1,3,5)           173.2777         calculate D2E/DX2 analytically  !
 ! D4    D(11,1,3,6)            -7.2119         calculate D2E/DX2 analytically  !
 ! D5    D(2,1,13,6)          -133.2836         calculate D2E/DX2 analytically  !
 ! D6    D(1,3,5,7)             59.0596         calculate D2E/DX2 analytically  !
 ! D7    D(1,3,5,8)            179.0434         calculate D2E/DX2 analytically  !
 ! D8    D(1,3,5,9)            -60.1392         calculate D2E/DX2 analytically  !
 ! D9    D(6,3,5,7)           -120.4415         calculate D2E/DX2 analytically  !
 ! D10   D(6,3,5,8)             -0.4577         calculate D2E/DX2 analytically  !
 ! D11   D(6,3,5,9)            120.3597         calculate D2E/DX2 analytically  !
 ! D12   D(13,3,5,7)           -25.2958         calculate D2E/DX2 analytically  !
 ! D13   D(13,3,5,8)            94.688          calculate D2E/DX2 analytically  !
 ! D14   D(13,3,5,9)          -144.4946         calculate D2E/DX2 analytically  !
 ! D15   D(1,3,6,10)             6.5574         calculate D2E/DX2 analytically  !
 ! D16   D(1,3,6,12)          -173.6291         calculate D2E/DX2 analytically  !
 ! D17   D(5,3,6,10)          -173.9628         calculate D2E/DX2 analytically  !
 ! D18   D(5,3,6,12)             5.8507         calculate D2E/DX2 analytically  !
 ! D19   D(5,3,13,11)          128.2221         calculate D2E/DX2 analytically  !
 ! D20   D(3,6,12,4)          -118.4765         calculate D2E/DX2 analytically  !
 ! D21   D(10,6,12,4)           61.3369         calculate D2E/DX2 analytically  !
 ! D22   D(13,6,12,4)          156.0764         calculate D2E/DX2 analytically  !
 ! D23   D(10,6,13,1)         -105.6664         calculate D2E/DX2 analytically  !
 ! D24   D(10,6,13,11)         -71.6825         calculate D2E/DX2 analytically  !
 ! D25   D(12,6,13,1)          141.4009         calculate D2E/DX2 analytically  !
 ! D26   D(12,6,13,11)         175.3848         calculate D2E/DX2 analytically  !
 --------------------------------------------------------------------------------
 Trust Radius=3.00D-01 FncErr=1.00D-07 GrdErr=1.00D-06
 Number of steps in this run=     74 maximum allowed number of steps=    100.
 Search for a saddle point of order  1.
 GradGradGradGradGradGradGradGradGradGradGradGradGradGradGradGradGradGrad

 Leave Link  103 at Wed Apr 13 10:12:01 2016, MaxMem=    33554432 cpu:         0.0
 (Enter /usr/local/gau/g09/l202.exe)
                          Input orientation:                          
 ---------------------------------------------------------------------
 Center     Atomic      Atomic             Coordinates (Angstroms)
 Number     Number       Type             X           Y           Z
 ---------------------------------------------------------------------
      1          7           0        1.089470    1.092465    0.177148
      2          1           0        2.086700    1.168391    0.094684
      3          6           0        0.471529   -0.155955    0.151914
      4          1           0       -2.101773   -1.638061   -0.553712
      5          6           0        1.379555   -1.354039    0.144234
      6          6           0       -0.869513   -0.262453    0.145437
      7          1           0        2.025072   -1.356951    1.032890
      8          1           0        0.798288   -2.276547    0.141254
      9          1           0        2.034780   -1.346989   -0.738295
     10          8           0       -1.646269    0.952567    0.019330
     11          1           0        0.527122    1.920249    0.080426
     12          8           0       -1.559761   -1.477984    0.249543
     13          1           0       -0.198393    0.865681    1.185096
 ---------------------------------------------------------------------
                    Distance matrix (angstroms):
                    1          2          3          4          5
     1  N    0.000000
     2  H    1.003510   0.000000
     3  C    1.393212   2.089484   0.000000
     4  H    4.263093   5.083296   3.052283   0.000000
     5  C    2.463862   2.620145   1.503321   3.561944   0.000000
     6  C    2.382105   3.284674   1.345280   1.974733   2.499974
     7  H    2.758131   2.694695   2.152210   4.430257   1.098367
     8  H    3.381762   3.678284   2.145646   3.049753   1.090367
     9  H    2.771747   2.650224   2.157496   4.150887   1.099194
    10  O    2.743856   3.739962   2.394048   2.692064   3.806789
    11  H    1.005394   1.731409   2.078178   4.469317   3.384032
    12  O    3.692001   4.508210   2.425579   0.982151   2.943812
    13  H    1.651055   2.549957   1.600000   3.593749   2.915557
                    6          7          8          9         10
     6  C    0.000000
     7  H    3.219335   0.000000
     8  H    2.614986   1.773604   0.000000
     9  H    3.223681   1.771240   1.779493   0.000000
    10  O    1.447593   4.454203   4.051901   4.405914   0.000000
    11  H    2.592104   3.727074   4.205987   3.690282   2.379868
    12  O    1.401712   3.671418   2.491952   3.730108   2.442961
    13  H    1.674508   3.147548   3.457828   3.685431   1.860888
                   11         12         13
    11  H    0.000000
    12  O    3.991449   0.000000
    13  H    1.690793   2.867289   0.000000
 Stoichiometry    C3H7NO2
 Framework group  C1[X(C3H7NO2)]
 Deg. of freedom    33
 Full point group                 C1      NOp   1
 Largest Abelian subgroup         C1      NOp   1
 Largest concise Abelian subgroup C1      NOp   1
                         Standard orientation:                         
 ---------------------------------------------------------------------
 Center     Atomic      Atomic             Coordinates (Angstroms)
 Number     Number       Type             X           Y           Z
 ---------------------------------------------------------------------
      1          7           0       -1.335194   -1.194187   -0.000270
      2          1           0       -2.333251   -1.189896   -0.104660
      3          6           0       -0.618372    0.000399   -0.013378
      4          1           0        2.080726    1.268576   -0.663783
      5          6           0       -1.426634    1.267614   -0.042599
      6          6           0        0.726709   -0.001343    0.009654
      7          1           0       -2.089155    1.325113    0.831569
      8          1           0       -0.773077    2.140362   -0.033868
      9          1           0       -2.060788    1.310641   -0.939384
     10          8           0        1.405730   -1.275281   -0.097760
     11          1           0       -0.839312   -2.064811   -0.083521
     12          8           0        1.510103    1.155033    0.127493
     13          1           0       -0.055671   -1.068706    1.035614
 ---------------------------------------------------------------------
 Rotational constants (GHZ):      4.7343134      3.3387170      2.0129849
 Leave Link  202 at Wed Apr 13 10:12:01 2016, MaxMem=    33554432 cpu:         0.0
 (Enter /usr/local/gau/g09/l301.exe)
 Standard basis: 6-31G (6D, 7F)
 Ernie: Thresh=  0.10000D-02 Tol=  0.10000D-05 Strict=F.
 There are    68 symmetry adapted cartesian basis functions of A   symmetry.
 There are    68 symmetry adapted basis functions of A   symmetry.
    68 basis functions,   160 primitive gaussians,    68 cartesian basis functions
    24 alpha electrons       24 beta electrons
       nuclear repulsion energy       245.3754293205 Hartrees.
 IExCor=  402 DFT=T Ex+Corr=B3LYP ExCW=0 ScaHFX=  0.200000
 ScaDFX=  0.800000  0.720000  1.000000  0.810000 ScalE2=  1.000000  1.000000
 IRadAn=      0 IRanWt=     -1 IRanGd=            0 ICorTp=0 IEmpDi=  4
 NAtoms=   13 NActive=   13 NUniq=   13 SFac= 1.00D+00 NAtFMM=   60 NAOKFM=F Big=F
 Integral buffers will be    131072 words long.
 Raffenetti 2 integral format.
 Two-electron integral symmetry is turned on.
 Leave Link  301 at Wed Apr 13 10:12:01 2016, MaxMem=    33554432 cpu:         0.0
 (Enter /usr/local/gau/g09/l302.exe)
 NPDir=0 NMtPBC=     1 NCelOv=     1 NCel=       1 NClECP=     1 NCelD=      1
         NCelK=      1 NCelE2=     1 NClLst=     1 CellRange=     0.0.
 One-electron integrals computed using PRISM.
 NBasis=    68 RedAO= T EigKep=  2.85D-03  NBF=    68
 NBsUse=    68 1.00D-06 EigRej= -1.00D+00 NBFU=    68
 Precomputing XC quadrature grid using
 IXCGrd= 4 IRadAn=           0 IRanWt=          -1 IRanGd=           0 AccXCQ= 0.00D+00.
 Generated NRdTot=       0 NPtTot=           0 NUsed=           0 NTot=          32
 NSgBfM=    68    68    68    68    68 MxSgAt=    13 MxSgA2=    13.
 Leave Link  302 at Wed Apr 13 10:12:01 2016, MaxMem=    33554432 cpu:         0.1
 (Enter /usr/local/gau/g09/l303.exe)
 DipDrv:  MaxL=1.
 Leave Link  303 at Wed Apr 13 10:12:01 2016, MaxMem=    33554432 cpu:         0.0
 (Enter /usr/local/gau/g09/l401.exe)
 ExpMin= 1.61D-01 ExpMax= 5.48D+03 ExpMxC= 8.25D+02 IAcc=1 IRadAn=         1 AccDes= 0.00D+00
 Harris functional with IExCor=  402 and IRadAn=       1 diagonalized for initial guess.
 HarFok:  IExCor=  402 AccDes= 0.00D+00 IRadAn=         1 IDoV= 1 UseB2=F ITyADJ=14
 ICtDFT=  3500011 ScaDFX=  1.000000  1.000000  1.000000  1.000000
 FoFCou: FMM=F IPFlag=           0 FMFlag=      100000 FMFlg1=           0
         NFxFlg=           0 DoJE=T BraDBF=F KetDBF=T FulRan=T
         wScrn=  0.000000 ICntrl=     500 IOpCl=  0 I1Cent=   200000004 NGrid=           0
         NMat0=    1 NMatS0=      1 NMatT0=    0 NMatD0=    1 NMtDS0=    0 NMtDT0=    0
 Petite list used in FoFCou.
 Harris En= -323.516583076904    
 JPrj=0 DoOrth=F DoCkMO=F.
 Leave Link  401 at Wed Apr 13 10:12:01 2016, MaxMem=    33554432 cpu:         0.4
 (Enter /usr/local/gau/g09/l502.exe)
 Closed shell SCF:
 Using DIIS extrapolation, IDIIS=  1040.
 Integral symmetry usage will be decided dynamically.
 Keep R1 ints in memory in canonical form, NReq=3676491.
 IVT=       33364 IEndB=       33364 NGot=    33554432 MDV=    30768038
 LenX=    30768038 LenY=    30762973
 Requested convergence on RMS density matrix=1.00D-08 within 128 cycles.
 Requested convergence on MAX density matrix=1.00D-06.
 Requested convergence on             energy=1.00D-06.
 No special actions if energy rises.
 FoFCou: FMM=F IPFlag=           0 FMFlag=           0 FMFlg1=           0
         NFxFlg=           0 DoJE=F BraDBF=F KetDBF=F FulRan=T
         wScrn=  0.000000 ICntrl=     600 IOpCl=  0 I1Cent=           0 NGrid=           0
         NMat0=    1 NMatS0=   2346 NMatT0=    0 NMatD0=    1 NMtDS0=    0 NMtDT0=    0
 Symmetry not used in FoFCou.
 Integral accuracy reduced to 1.0D-05 until final iterations.

 Cycle   1  Pass 0  IDiag  1:
 E= -323.179747004790    
 DIIS: error= 4.12D-02 at cycle   1 NSaved=   1.
 NSaved= 1 IEnMin= 1 EnMin= -323.179747004790     IErMin= 1 ErrMin= 4.12D-02
 ErrMax= 4.12D-02  0.00D+00 EMaxC= 1.00D-01 BMatC= 2.58D-01 BMatP= 2.58D-01
 IDIUse=3 WtCom= 5.88D-01 WtEn= 4.12D-01
 Coeff-Com:  0.100D+01
 Coeff-En:   0.100D+01
 Coeff:      0.100D+01
 Gap=     0.016 Goal=   None    Shift=    0.000
 GapD=    0.016 DampG=0.250 DampE=0.500 DampFc=0.2500 IDamp=-1.
 Damping current iteration by 2.50D-01
 RMSDP=3.22D-02 MaxDP=6.97D-01              OVMax= 7.32D-01

 Cycle   2  Pass 0  IDiag  1:
 E= -323.213735226280     Delta-E=       -0.033988221489 Rises=F Damp=T
 DIIS: error= 1.89D-02 at cycle   2 NSaved=   2.
 NSaved= 2 IEnMin= 2 EnMin= -323.213735226280     IErMin= 2 ErrMin= 1.89D-02
 ErrMax= 1.89D-02  0.00D+00 EMaxC= 1.00D-01 BMatC= 4.67D-02 BMatP= 2.58D-01
 IDIUse=3 WtCom= 8.11D-01 WtEn= 1.89D-01
 Coeff-Com: -0.564D-01 0.106D+01
 Coeff-En:   0.393D+00 0.607D+00
 Coeff:      0.285D-01 0.972D+00
 Gap=    -0.017 Goal=   None    Shift=    0.000
 RMSDP=1.03D-02 MaxDP=1.20D-01 DE=-3.40D-02 OVMax= 6.54D-01

 Cycle   3  Pass 0  IDiag  1:
 E= -323.222976154689     Delta-E=       -0.009240928409 Rises=F Damp=F
 DIIS: error= 4.64D-02 at cycle   3 NSaved=   3.
 NSaved= 3 IEnMin= 3 EnMin= -323.222976154689     IErMin= 2 ErrMin= 1.89D-02
 ErrMax= 4.64D-02  0.00D+00 EMaxC= 1.00D-01 BMatC= 2.01D-01 BMatP= 4.67D-02
 IDIUse=2 WtCom= 0.00D+00 WtEn= 1.00D+00
 EnCoef did     2 forward-backward iterations
 Coeff-En:   0.575D-01 0.448D+00 0.495D+00
 Coeff:      0.575D-01 0.448D+00 0.495D+00
 Gap=     0.103 Goal=   None    Shift=    0.000
 RMSDP=1.77D-02 MaxDP=1.84D-01 DE=-9.24D-03 OVMax= 4.88D-01

 Cycle   4  Pass 0  IDiag  1:
 E= -323.052668238934     Delta-E=        0.170307915755 Rises=F Damp=F
 DIIS: error= 8.38D-02 at cycle   4 NSaved=   4.
 NSaved= 4 IEnMin= 3 EnMin= -323.222976154689     IErMin= 2 ErrMin= 1.89D-02
 ErrMax= 8.38D-02  0.00D+00 EMaxC= 1.00D-01 BMatC= 4.02D-01 BMatP= 4.67D-02
 IDIUse=2 WtCom= 0.00D+00 WtEn= 1.00D+00
 EnCoef did     2 forward-backward iterations
 Coeff-En:   0.123D+00 0.000D+00 0.511D+00 0.367D+00
 Coeff:      0.123D+00 0.000D+00 0.511D+00 0.367D+00
 Gap=     0.110 Goal=   None    Shift=    0.000
 RMSDP=1.12D-02 MaxDP=1.78D-01 DE= 1.70D-01 OVMax= 2.62D-01

 Cycle   5  Pass 0  IDiag  1:
 E= -323.420576829416     Delta-E=       -0.367908590482 Rises=F Damp=F
 DIIS: error= 7.56D-03 at cycle   5 NSaved=   5.
 NSaved= 5 IEnMin= 5 EnMin= -323.420576829416     IErMin= 5 ErrMin= 7.56D-03
 ErrMax= 7.56D-03  0.00D+00 EMaxC= 1.00D-01 BMatC= 7.57D-03 BMatP= 4.67D-02
 IDIUse=3 WtCom= 9.24D-01 WtEn= 7.56D-02
 Coeff-Com: -0.171D+00 0.205D+00 0.138D+00-0.553D-02 0.834D+00
 Coeff-En:   0.000D+00 0.000D+00 0.000D+00 0.000D+00 0.100D+01
 Coeff:     -0.158D+00 0.189D+00 0.128D+00-0.511D-02 0.847D+00
 Gap=     0.097 Goal=   None    Shift=    0.000
 RMSDP=1.38D-03 MaxDP=2.25D-02 DE=-3.68D-01 OVMax= 2.15D-02

 Cycle   6  Pass 0  IDiag  1:
 E= -323.427019234023     Delta-E=       -0.006442404607 Rises=F Damp=F
 DIIS: error= 3.24D-03 at cycle   6 NSaved=   6.
 NSaved= 6 IEnMin= 6 EnMin= -323.427019234023     IErMin= 6 ErrMin= 3.24D-03
 ErrMax= 3.24D-03  0.00D+00 EMaxC= 1.00D-01 BMatC= 8.94D-04 BMatP= 7.57D-03
 IDIUse=3 WtCom= 9.68D-01 WtEn= 3.24D-02
 Coeff-Com: -0.892D-01 0.969D-01 0.414D-01 0.155D-02 0.413D+00 0.536D+00
 Coeff-En:   0.000D+00 0.000D+00 0.000D+00 0.000D+00 0.000D+00 0.100D+01
 Coeff:     -0.863D-01 0.937D-01 0.401D-01 0.150D-02 0.400D+00 0.551D+00
 Gap=     0.099 Goal=   None    Shift=    0.000
 RMSDP=3.89D-04 MaxDP=6.54D-03 DE=-6.44D-03 OVMax= 6.70D-03

 Cycle   7  Pass 0  IDiag  1:
 E= -323.427722985230     Delta-E=       -0.000703751207 Rises=F Damp=F
 DIIS: error= 1.50D-03 at cycle   7 NSaved=   7.
 NSaved= 7 IEnMin= 7 EnMin= -323.427722985230     IErMin= 7 ErrMin= 1.50D-03
 ErrMax= 1.50D-03  0.00D+00 EMaxC= 1.00D-01 BMatC= 1.77D-04 BMatP= 8.94D-04
 IDIUse=3 WtCom= 9.85D-01 WtEn= 1.50D-02
 Coeff-Com: -0.205D-01 0.241D-01-0.103D-01 0.643D-02 0.332D-01 0.268D+00
 Coeff-Com:  0.699D+00
 Coeff-En:   0.000D+00 0.000D+00 0.000D+00 0.000D+00 0.000D+00 0.000D+00
 Coeff-En:   0.100D+01
 Coeff:     -0.202D-01 0.238D-01-0.102D-01 0.633D-02 0.327D-01 0.264D+00
 Coeff:      0.704D+00
 Gap=     0.100 Goal=   None    Shift=    0.000
 RMSDP=2.42D-04 MaxDP=2.25D-03 DE=-7.04D-04 OVMax= 6.19D-03

 Cycle   8  Pass 0  IDiag  1:
 E= -323.427873896746     Delta-E=       -0.000150911516 Rises=F Damp=F
 DIIS: error= 6.66D-04 at cycle   8 NSaved=   8.
 NSaved= 8 IEnMin= 8 EnMin= -323.427873896746     IErMin= 8 ErrMin= 6.66D-04
 ErrMax= 6.66D-04  0.00D+00 EMaxC= 1.00D-01 BMatC= 2.01D-05 BMatP= 1.77D-04
 IDIUse=3 WtCom= 9.93D-01 WtEn= 6.66D-03
 Coeff-Com:  0.199D-02-0.668D-02-0.133D-01 0.692D-02-0.366D-01 0.659D-01
 Coeff-Com:  0.414D+00 0.568D+00
 Coeff-En:   0.000D+00 0.000D+00 0.000D+00 0.000D+00 0.000D+00 0.000D+00
 Coeff-En:   0.000D+00 0.100D+01
 Coeff:      0.198D-02-0.663D-02-0.132D-01 0.687D-02-0.364D-01 0.655D-01
 Coeff:      0.411D+00 0.571D+00
 Gap=     0.100 Goal=   None    Shift=    0.000
 RMSDP=1.30D-04 MaxDP=1.53D-03 DE=-1.51D-04 OVMax= 2.68D-03

 Cycle   9  Pass 0  IDiag  1:
 E= -323.427895610351     Delta-E=       -0.000021713605 Rises=F Damp=F
 DIIS: error= 2.27D-04 at cycle   9 NSaved=   9.
 NSaved= 9 IEnMin= 9 EnMin= -323.427895610351     IErMin= 9 ErrMin= 2.27D-04
 ErrMax= 2.27D-04  0.00D+00 EMaxC= 1.00D-01 BMatC= 2.33D-06 BMatP= 2.01D-05
 IDIUse=3 WtCom= 9.98D-01 WtEn= 2.27D-03
 Coeff-Com:  0.177D-02-0.370D-02-0.346D-02 0.160D-02-0.126D-01 0.594D-02
 Coeff-Com:  0.118D+00 0.265D+00 0.627D+00
 Coeff-En:   0.000D+00 0.000D+00 0.000D+00 0.000D+00 0.000D+00 0.000D+00
 Coeff-En:   0.000D+00 0.118D+00 0.882D+00
 Coeff:      0.177D-02-0.369D-02-0.345D-02 0.159D-02-0.126D-01 0.593D-02
 Coeff:      0.118D+00 0.265D+00 0.628D+00
 Gap=     0.100 Goal=   None    Shift=    0.000
 RMSDP=2.46D-05 MaxDP=2.91D-04 DE=-2.17D-05 OVMax= 6.25D-04

 Cycle  10  Pass 0  IDiag  1:
 E= -323.427897722229     Delta-E=       -0.000002111879 Rises=F Damp=F
 DIIS: error= 8.02D-05 at cycle  10 NSaved=  10.
 NSaved=10 IEnMin=10 EnMin= -323.427897722229     IErMin=10 ErrMin= 8.02D-05
 ErrMax= 8.02D-05  0.00D+00 EMaxC= 1.00D-01 BMatC= 4.79D-07 BMatP= 2.33D-06
 IDIUse=1 WtCom= 1.00D+00 WtEn= 0.00D+00
 Coeff-Com: -0.757D-04 0.142D-03 0.321D-03-0.302D-03 0.104D-02-0.191D-03
 Coeff-Com:  0.228D-01 0.723D-01 0.320D+00 0.584D+00
 Coeff:     -0.757D-04 0.142D-03 0.321D-03-0.302D-03 0.104D-02-0.191D-03
 Coeff:      0.228D-01 0.723D-01 0.320D+00 0.584D+00
 Gap=     0.100 Goal=   None    Shift=    0.000
 RMSDP=1.67D-05 MaxDP=1.73D-04 DE=-2.11D-06 OVMax= 3.39D-04

 Cycle  11  Pass 0  IDiag  1:
 E= -323.427898219155     Delta-E=       -0.000000496926 Rises=F Damp=F
 DIIS: error= 8.33D-06 at cycle  11 NSaved=  11.
 NSaved=11 IEnMin=11 EnMin= -323.427898219155     IErMin=11 ErrMin= 8.33D-06
 ErrMax= 8.33D-06  0.00D+00 EMaxC= 1.00D-01 BMatC= 6.00D-09 BMatP= 4.79D-07
 IDIUse=1 WtCom= 1.00D+00 WtEn= 0.00D+00
 Coeff-Com:  0.657D-04-0.109D-03 0.250D-03-0.126D-03 0.733D-03-0.179D-02
 Coeff-Com: -0.101D-02-0.956D-02 0.581D-02 0.149D+00 0.857D+00
 Coeff:      0.657D-04-0.109D-03 0.250D-03-0.126D-03 0.733D-03-0.179D-02
 Coeff:     -0.101D-02-0.956D-02 0.581D-02 0.149D+00 0.857D+00
 Gap=     0.100 Goal=   None    Shift=    0.000
 RMSDP=3.97D-06 MaxDP=6.58D-05 DE=-4.97D-07 OVMax= 1.33D-04

 Initial convergence to 1.0D-05 achieved.  Increase integral accuracy.
 Cycle  12  Pass 1  IDiag  1:
 E= -323.427905947846     Delta-E=       -0.000007728691 Rises=F Damp=F
 DIIS: error= 9.15D-06 at cycle   1 NSaved=   1.
 NSaved= 1 IEnMin= 1 EnMin= -323.427905947846     IErMin= 1 ErrMin= 9.15D-06
 ErrMax= 9.15D-06  0.00D+00 EMaxC= 1.00D-01 BMatC= 1.39D-08 BMatP= 1.39D-08
 IDIUse=1 WtCom= 1.00D+00 WtEn= 0.00D+00
 Coeff-Com:  0.100D+01
 Coeff:      0.100D+01
 Gap=     0.100 Goal=   None    Shift=    0.000
 RMSDP=3.97D-06 MaxDP=6.58D-05 DE=-7.73D-06 OVMax= 1.24D-04

 Cycle  13  Pass 1  IDiag  1:
 E= -323.427905927633     Delta-E=        0.000000020214 Rises=F Damp=F
 DIIS: error= 2.52D-05 at cycle   2 NSaved=   2.
 NSaved= 2 IEnMin= 1 EnMin= -323.427905947846     IErMin= 1 ErrMin= 9.15D-06
 ErrMax= 2.52D-05  0.00D+00 EMaxC= 1.00D-01 BMatC= 4.94D-08 BMatP= 1.39D-08
 IDIUse=1 WtCom= 1.00D+00 WtEn= 0.00D+00
 Coeff-Com:  0.689D+00 0.311D+00
 Coeff:      0.689D+00 0.311D+00
 Gap=     0.100 Goal=   None    Shift=    0.000
 RMSDP=5.55D-06 MaxDP=6.33D-05 DE= 2.02D-08 OVMax= 1.41D-04

 Cycle  14  Pass 1  IDiag  1:
 E= -323.427905968453     Delta-E=       -0.000000040820 Rises=F Damp=F
 DIIS: error= 9.04D-06 at cycle   3 NSaved=   3.
 NSaved= 3 IEnMin= 3 EnMin= -323.427905968453     IErMin= 3 ErrMin= 9.04D-06
 ErrMax= 9.04D-06  0.00D+00 EMaxC= 1.00D-01 BMatC= 7.47D-09 BMatP= 1.39D-08
 IDIUse=1 WtCom= 1.00D+00 WtEn= 0.00D+00
 Coeff-Com: -0.193D-01 0.280D+00 0.740D+00
 Coeff:     -0.193D-01 0.280D+00 0.740D+00
 Gap=     0.100 Goal=   None    Shift=    0.000
 RMSDP=1.58D-06 MaxDP=1.65D-05 DE=-4.08D-08 OVMax= 3.44D-05

 Cycle  15  Pass 1  IDiag  1:
 E= -323.427905975223     Delta-E=       -0.000000006770 Rises=F Damp=F
 DIIS: error= 1.47D-06 at cycle   4 NSaved=   4.
 NSaved= 4 IEnMin= 4 EnMin= -323.427905975223     IErMin= 4 ErrMin= 1.47D-06
 ErrMax= 1.47D-06  0.00D+00 EMaxC= 1.00D-01 BMatC= 2.60D-10 BMatP= 7.47D-09
 IDIUse=1 WtCom= 1.00D+00 WtEn= 0.00D+00
 Coeff-Com: -0.283D-01 0.161D+00 0.376D+00 0.492D+00
 Coeff:     -0.283D-01 0.161D+00 0.376D+00 0.492D+00
 Gap=     0.100 Goal=   None    Shift=    0.000
 RMSDP=2.51D-07 MaxDP=2.67D-06 DE=-6.77D-09 OVMax= 4.46D-06

 Cycle  16  Pass 1  IDiag  1:
 E= -323.427905975449     Delta-E=       -0.000000000226 Rises=F Damp=F
 DIIS: error= 9.25D-07 at cycle   5 NSaved=   5.
 NSaved= 5 IEnMin= 5 EnMin= -323.427905975449     IErMin= 5 ErrMin= 9.25D-07
 ErrMax= 9.25D-07  0.00D+00 EMaxC= 1.00D-01 BMatC= 5.53D-11 BMatP= 2.60D-10
 IDIUse=1 WtCom= 1.00D+00 WtEn= 0.00D+00
 Coeff-Com: -0.381D-02 0.244D-01-0.198D-01 0.140D+00 0.859D+00
 Coeff:     -0.381D-02 0.244D-01-0.198D-01 0.140D+00 0.859D+00
 Gap=     0.100 Goal=   None    Shift=    0.000
 RMSDP=3.75D-07 MaxDP=4.52D-06 DE=-2.26D-10 OVMax= 1.34D-05

 Cycle  17  Pass 1  IDiag  1:
 E= -323.427905975539     Delta-E=       -0.000000000090 Rises=F Damp=F
 DIIS: error= 3.70D-07 at cycle   6 NSaved=   6.
 NSaved= 6 IEnMin= 6 EnMin= -323.427905975539     IErMin= 6 ErrMin= 3.70D-07
 ErrMax= 3.70D-07  0.00D+00 EMaxC= 1.00D-01 BMatC= 1.91D-11 BMatP= 5.53D-11
 IDIUse=1 WtCom= 1.00D+00 WtEn= 0.00D+00
 Coeff-Com:  0.298D-02-0.143D-01-0.904D-01-0.897D-01 0.629D+00 0.562D+00
 Coeff:      0.298D-02-0.143D-01-0.904D-01-0.897D-01 0.629D+00 0.562D+00
 Gap=     0.100 Goal=   None    Shift=    0.000
 RMSDP=1.42D-07 MaxDP=2.34D-06 DE=-9.03D-11 OVMax= 4.84D-06

 Cycle  18  Pass 1  IDiag  1:
 E= -323.427905975562     Delta-E=       -0.000000000023 Rises=F Damp=F
 DIIS: error= 1.49D-07 at cycle   7 NSaved=   7.
 NSaved= 7 IEnMin= 7 EnMin= -323.427905975562     IErMin= 7 ErrMin= 1.49D-07
 ErrMax= 1.49D-07  0.00D+00 EMaxC= 1.00D-01 BMatC= 2.36D-12 BMatP= 1.91D-11
 IDIUse=1 WtCom= 1.00D+00 WtEn= 0.00D+00
 Coeff-Com:  0.354D-02-0.159D-01-0.563D-01-0.129D+00 0.196D+00 0.246D+00
 Coeff-Com:  0.756D+00
 Coeff:      0.354D-02-0.159D-01-0.563D-01-0.129D+00 0.196D+00 0.246D+00
 Coeff:      0.756D+00
 Gap=     0.100 Goal=   None    Shift=    0.000
 RMSDP=8.49D-08 MaxDP=1.31D-06 DE=-2.30D-11 OVMax= 2.95D-06

 Cycle  19  Pass 1  IDiag  1:
 E= -323.427905975567     Delta-E=       -0.000000000005 Rises=F Damp=F
 DIIS: error= 2.59D-08 at cycle   8 NSaved=   8.
 NSaved= 8 IEnMin= 8 EnMin= -323.427905975567     IErMin= 8 ErrMin= 2.59D-08
 ErrMax= 2.59D-08  0.00D+00 EMaxC= 1.00D-01 BMatC= 7.68D-14 BMatP= 2.36D-12
 IDIUse=1 WtCom= 1.00D+00 WtEn= 0.00D+00
 Coeff-Com:  0.836D-03-0.273D-02-0.947D-02-0.359D-01 0.267D-01 0.195D-01
 Coeff-Com:  0.264D+00 0.737D+00
 Coeff:      0.836D-03-0.273D-02-0.947D-02-0.359D-01 0.267D-01 0.195D-01
 Coeff:      0.264D+00 0.737D+00
 Gap=     0.100 Goal=   None    Shift=    0.000
 RMSDP=1.10D-08 MaxDP=1.39D-07 DE=-4.77D-12 OVMax= 3.25D-07

 Cycle  20  Pass 1  IDiag  1:
 E= -323.427905975566     Delta-E=        0.000000000001 Rises=F Damp=F
 DIIS: error= 7.75D-09 at cycle   9 NSaved=   9.
 NSaved= 9 IEnMin= 8 EnMin= -323.427905975567     IErMin= 9 ErrMin= 7.75D-09
 ErrMax= 7.75D-09  0.00D+00 EMaxC= 1.00D-01 BMatC= 7.30D-15 BMatP= 7.68D-14
 IDIUse=1 WtCom= 1.00D+00 WtEn= 0.00D+00
 Coeff-Com:  0.117D-03-0.171D-03-0.466D-03-0.647D-02-0.498D-02-0.100D-01
 Coeff-Com:  0.529D-01 0.292D+00 0.677D+00
 Coeff:      0.117D-03-0.171D-03-0.466D-03-0.647D-02-0.498D-02-0.100D-01
 Coeff:      0.529D-01 0.292D+00 0.677D+00
 Gap=     0.100 Goal=   None    Shift=    0.000
 RMSDP=3.08D-09 MaxDP=4.64D-08 DE= 9.09D-13 OVMax= 9.53D-08

 SCF Done:  E(RB3LYP) =  -323.427905976     A.U. after   20 cycles
            NFock= 20  Conv=0.31D-08     -V/T= 2.0057
 KE= 3.216034527613D+02 PE=-1.248418662191D+03 EE= 3.580118741340D+02
 Leave Link  502 at Wed Apr 13 10:12:17 2016, MaxMem=    33554432 cpu:        14.2
 (Enter /usr/local/gau/g09/l801.exe)
 DoSCS=F DFT=T ScalE2(SS,OS)=  1.000000  1.000000
 Range of M.O.s used for correlation:     1    68
 NBasis=    68 NAE=    24 NBE=    24 NFC=     0 NFV=     0
 NROrb=     68 NOA=    24 NOB=    24 NVA=    44 NVB=    44

 **** Warning!!: The smallest alpha delta epsilon is  0.99621892D-01

 Leave Link  801 at Wed Apr 13 10:12:17 2016, MaxMem=    33554432 cpu:         0.0
 (Enter /usr/local/gau/g09/l1101.exe)
 Using compressed storage, NAtomX=    13.
 Will process     14 centers per pass.
 Leave Link 1101 at Wed Apr 13 10:12:17 2016, MaxMem=    33554432 cpu:         0.1
 (Enter /usr/local/gau/g09/l1102.exe)
 Symmetrizing basis deriv contribution to polar:
 IMax=3 JMax=2 DiffMx= 0.00D+00
 Leave Link 1102 at Wed Apr 13 10:12:17 2016, MaxMem=    33554432 cpu:         0.0
 (Enter /usr/local/gau/g09/l1110.exe)
 Forming Gx(P) for the SCF density, NAtomX=    13.
 Integral derivatives from FoFJK, PRISM(SPDF).
 Do as many integral derivatives as possible in FoFJK.
 G2DrvN: MDV=      33554224.
 G2DrvN: will do    14 centers at a time, making    1 passes.
 Calling FoFCou, ICntrl=  3107 FMM=F I1Cent=   0 AccDes= 0.00D+00.
 FoFJK:  IHMeth= 1 ICntrl=    3107 DoSepK=F KAlg= 0 I1Cent=   0 FoldK=F
 IRaf=         0 NMat=   1 IRICut=       1 DoRegI=T DoRafI=F ISym2E= 0.
 FoFCou: FMM=F IPFlag=           0 FMFlag=      100000 FMFlg1=           0
         NFxFlg=           0 DoJE=F BraDBF=F KetDBF=F FulRan=T
         wScrn=  0.000000 ICntrl=    3107 IOpCl=  0 I1Cent=           0 NGrid=           0
         NMat0=    1 NMatS0=      1 NMatT0=    0 NMatD0=    1 NMtDS0=    0 NMtDT0=    0
 Symmetry not used in FoFCou.
 End of G2Drv F.D. properties file   721 does not exist.
 End of G2Drv F.D. properties file   722 does not exist.
 End of G2Drv F.D. properties file   788 does not exist.
 Leave Link 1110 at Wed Apr 13 10:12:40 2016, MaxMem=    33554432 cpu:        22.0
 (Enter /usr/local/gau/g09/l1002.exe)
 Minotr:  Closed shell wavefunction.
          IDoAtm=1111111111111
          Direct CPHF calculation.
          Differentiating once with respect to nuclear coordinates.
          Requested convergence is 1.0D-08 RMS, and 1.0D-07 maximum.
          Secondary convergence is 1.0D-12 RMS, and 1.0D-12 maximum.
          NewPWx=T KeepS1=F KeepF1=F KeepIn=T MapXYZ=F SortEE=F KeepMc=T.
          MDV=      33554230 using IRadAn=       2.
 Generate precomputed XC quadrature information.
 Keep R1 ints in memory in canonical form, NReq=3645290.
 FoFCou: FMM=F IPFlag=           0 FMFlag=           0 FMFlg1=           0
         NFxFlg=           0 DoJE=F BraDBF=F KetDBF=F FulRan=T
         wScrn=  0.000000 ICntrl=     600 IOpCl=  0 I1Cent=           0 NGrid=           0
         NMat0=    1 NMatS0=   2346 NMatT0=    0 NMatD0=    1 NMtDS0=    0 NMtDT0=    0
 Symmetry not used in FoFCou.
          Solving linear equations simultaneously, MaxMat=       0.
          There are    42 degrees of freedom in the 1st order CPHF.  IDoFFX=6 NUNeed=     0.
     36 vectors produced by pass  0 Test12= 2.51D-15 2.38D-09 XBig12= 2.18D-01 2.22D-01.
 AX will form    36 AO Fock derivatives at one time.
     36 vectors produced by pass  1 Test12= 2.51D-15 2.38D-09 XBig12= 3.44D-02 3.55D-02.
     36 vectors produced by pass  2 Test12= 2.51D-15 2.38D-09 XBig12= 1.90D-04 2.11D-03.
     36 vectors produced by pass  3 Test12= 2.51D-15 2.38D-09 XBig12= 3.51D-07 1.21D-04.
     36 vectors produced by pass  4 Test12= 2.51D-15 2.38D-09 XBig12= 4.10D-10 3.51D-06.
     17 vectors produced by pass  5 Test12= 2.51D-15 2.38D-09 XBig12= 2.66D-13 9.84D-08.
 InvSVY:  IOpt=1 It=  1 EMax= 1.89D-15
 Solved reduced A of dimension   197 with    36 vectors.
 End of Minotr F.D. properties file   721 does not exist.
 End of Minotr F.D. properties file   722 does not exist.
 End of Minotr F.D. properties file   788 does not exist.
 Leave Link 1002 at Wed Apr 13 10:12:55 2016, MaxMem=    33554432 cpu:        14.7
 (Enter /usr/local/gau/g09/l601.exe)
 Copying SCF densities to generalized density rwf, IOpCl= 0 IROHF=0.

 **********************************************************************

            Population analysis using the SCF density.

 **********************************************************************

 Orbital symmetries:
       Occupied  (A) (A) (A) (A) (A) (A) (A) (A) (A) (A) (A) (A)
                 (A) (A) (A) (A) (A) (A) (A) (A) (A) (A) (A) (A)
       Virtual   (A) (A) (A) (A) (A) (A) (A) (A) (A) (A) (A) (A)
                 (A) (A) (A) (A) (A) (A) (A) (A) (A) (A) (A) (A)
                 (A) (A) (A) (A) (A) (A) (A) (A) (A) (A) (A) (A)
                 (A) (A) (A) (A) (A) (A) (A) (A)
 The electronic state is 1-A.
 Alpha  occ. eigenvalues --  -19.16749 -19.09528 -14.36241 -10.28772 -10.24431
 Alpha  occ. eigenvalues --  -10.19482  -1.05543  -0.96787  -0.90323  -0.77778
 Alpha  occ. eigenvalues --   -0.70255  -0.59831  -0.56858  -0.51639  -0.46757
 Alpha  occ. eigenvalues --   -0.45114  -0.41865  -0.40530  -0.38657  -0.36295
 Alpha  occ. eigenvalues --   -0.30544  -0.27735  -0.23577  -0.17674
 Alpha virt. eigenvalues --   -0.07712   0.04262   0.07064   0.07799   0.11618
 Alpha virt. eigenvalues --    0.12921   0.16737   0.16810   0.20474   0.21246
 Alpha virt. eigenvalues --    0.23835   0.36734   0.42471   0.52170   0.54235
 Alpha virt. eigenvalues --    0.56677   0.58913   0.63457   0.64866   0.67343
 Alpha virt. eigenvalues --    0.70247   0.73708   0.74839   0.78488   0.82842
 Alpha virt. eigenvalues --    0.86782   0.87043   0.91074   0.91872   0.94833
 Alpha virt. eigenvalues --    0.94986   0.96662   1.02220   1.07457   1.07810
 Alpha virt. eigenvalues --    1.13599   1.16499   1.21285   1.21775   1.32484
 Alpha virt. eigenvalues --    1.43747   1.54604   1.74799   1.97762
          Condensed to atoms (all electrons):
               1          2          3          4          5          6
     1  N    7.291358   0.316481   0.121320  -0.000157  -0.075859  -0.125042
     2  H    0.316481   0.379249  -0.027928   0.000002  -0.003577   0.008331
     3  C    0.121320  -0.027928   5.688878   0.003135   0.282946   0.196746
     4  H   -0.000157   0.000002   0.003135   0.400965   0.000251  -0.027587
     5  C   -0.075859  -0.003577   0.282946   0.000251   5.148301  -0.001432
     6  C   -0.125042   0.008331   0.196746  -0.027587  -0.001432   5.050018
     7  H    0.006631   0.000776  -0.041511  -0.000062   0.360327   0.000196
     8  H    0.003753  -0.000026  -0.033639  -0.000371   0.374271  -0.002624
     9  H   -0.001658   0.002001  -0.044468   0.000115   0.368678  -0.000684
    10  O   -0.009491   0.000761  -0.157415   0.002850   0.003364   0.310535
    11  H    0.290257  -0.013099  -0.044376  -0.000021   0.005118   0.004069
    12  O    0.002365   0.000009  -0.120396   0.234495  -0.004308   0.194092
    13  H   -0.002759   0.004985  -0.075386   0.000264   0.005074   0.104744
               7          8          9         10         11         12
     1  N    0.006631   0.003753  -0.001658  -0.009491   0.290257   0.002365
     2  H    0.000776  -0.000026   0.002001   0.000761  -0.013099   0.000009
     3  C   -0.041511  -0.033639  -0.044468  -0.157415  -0.044376  -0.120396
     4  H   -0.000062  -0.000371   0.000115   0.002850  -0.000021   0.234495
     5  C    0.360327   0.374271   0.368678   0.003364   0.005118  -0.004308
     6  C    0.000196  -0.002624  -0.000684   0.310535   0.004069   0.194092
     7  H    0.588926  -0.023876  -0.041048   0.000000  -0.000088   0.000254
     8  H   -0.023876   0.508483  -0.023743   0.000164  -0.000168   0.011152
     9  H   -0.041048  -0.023743   0.588208  -0.000028  -0.000110   0.000374
    10  O    0.000000   0.000164  -0.000028   8.387813   0.024797  -0.074218
    11  H   -0.000088  -0.000168  -0.000110   0.024797   0.371049   0.000443
    12  O    0.000254   0.011152   0.000374  -0.074218   0.000443   8.342354
    13  H   -0.001616  -0.000116   0.000253   0.076793   0.010180   0.006477
              13
     1  N   -0.002759
     2  H    0.004985
     3  C   -0.075386
     4  H    0.000264
     5  C    0.005074
     6  C    0.104744
     7  H   -0.001616
     8  H   -0.000116
     9  H    0.000253
    10  O    0.076793
    11  H    0.010180
    12  O    0.006477
    13  H    0.532511
 Mulliken charges:
               1
     1  N   -0.817200
     2  H    0.332037
     3  C    0.252094
     4  H    0.386121
     5  C   -0.463153
     6  C    0.288639
     7  H    0.151091
     8  H    0.186739
     9  H    0.152107
    10  O   -0.565926
    11  H    0.351949
    12  O   -0.593094
    13  H    0.338595
 Sum of Mulliken charges =   0.00000
 Mulliken charges with hydrogens summed into heavy atoms:
               1
     1  N   -0.133215
     3  C    0.590689
     5  C    0.026784
     6  C    0.288639
    10  O   -0.565926
    12  O   -0.206972
 APT charges:
               1
     1  N   -1.340505
     2  H    0.731255
     3  C    0.341618
     4  H    0.670932
     5  C   -1.238377
     6  C   -0.088881
     7  H    0.426047
     8  H    0.376899
     9  H    0.444367
    10  O   -0.504574
    11  H    0.540976
    12  O   -0.716292
    13  H    0.356535
 Sum of APT charges =   0.00000
 APT charges with hydrogens summed into heavy atoms:
               1
     1  N   -0.068273
     3  C    0.698153
     5  C    0.008936
     6  C   -0.088881
    10  O   -0.504574
    12  O   -0.045360
 Electronic spatial extent (au):  <R**2>=            604.5075
 Charge=              0.0000 electrons
 Dipole moment (field-independent basis, Debye):
    X=             -4.2425    Y=              0.9276    Z=             -0.7832  Tot=              4.4128
 Quadrupole moment (field-independent basis, Debye-Ang):
   XX=            -34.3142   YY=            -36.4744   ZZ=            -36.1576
   XY=              7.0340   XZ=             -2.8143   YZ=             -3.5600
 Traceless Quadrupole moment (field-independent basis, Debye-Ang):
   XX=              1.3345   YY=             -0.8257   ZZ=             -0.5089
   XY=              7.0340   XZ=             -2.8143   YZ=             -3.5600
 Octapole moment (field-independent basis, Debye-Ang**2):
  XXX=             -6.2032  YYY=             -4.7126  ZZZ=             -0.4105  XYY=             -8.5152
  XXY=              6.7480  XXZ=             -9.5181  XZZ=              4.2299  YZZ=              0.7528
  YYZ=             -2.5218  XYZ=             -5.9050
 Hexadecapole moment (field-independent basis, Debye-Ang**3):
 XXXX=           -351.1109 YYYY=           -275.4180 ZZZZ=            -46.5321 XXXY=             45.0101
 XXXZ=            -13.1614 YYYX=             27.0847 YYYZ=             -4.2511 ZZZX=             -2.4365
 ZZZY=             -2.5512 XXYY=           -112.7428 XXZZ=            -72.0261 YYZZ=            -56.9244
 XXYZ=             -7.7630 YYXZ=             -4.6792 ZZXY=              2.7194
 N-N= 2.453754293205D+02 E-N=-1.248418662267D+03  KE= 3.216034527613D+02
  Exact polarizability:   0.000   0.000   0.000   0.000   0.000   0.000
 Approx polarizability: 129.013  -9.185  87.835 -11.694  -5.381  47.805
 No NMR shielding tensors so no spin-rotation constants.
 Leave Link  601 at Wed Apr 13 10:12:55 2016, MaxMem=    33554432 cpu:         0.1
 (Enter /usr/local/gau/g09/l701.exe)
 Compute integral second derivatives.
 ... and contract with generalized density number  0.
 Leave Link  701 at Wed Apr 13 10:12:55 2016, MaxMem=    33554432 cpu:         0.1
 (Enter /usr/local/gau/g09/l702.exe)
 L702 exits ... SP integral derivatives will be done elsewhere.
 Leave Link  702 at Wed Apr 13 10:12:55 2016, MaxMem=    33554432 cpu:         0.0
 (Enter /usr/local/gau/g09/l703.exe)
 Compute integral second derivatives, UseDBF=F ICtDFT=           0.
 Integral derivatives from FoFJK, PRISM(SPDF).
 Calling FoFJK, ICntrl=    100147 FMM=F ISym2X=0 I1Cent= 0 IOpClX= 0 NMat=1 NMatS=1 NMatT=0.
 FoFJK:  IHMeth= 1 ICntrl=  100147 DoSepK=F KAlg= 0 I1Cent=   0 FoldK=F
 IRaf=         0 NMat=   1 IRICut=       1 DoRegI=T DoRafI=F ISym2E= 0.
 FoFCou: FMM=F IPFlag=           0 FMFlag=      100000 FMFlg1=         800
         NFxFlg=           0 DoJE=F BraDBF=F KetDBF=F FulRan=T
         wScrn=  0.000000 ICntrl=  100147 IOpCl=  0 I1Cent=           0 NGrid=           0
         NMat0=    1 NMatS0=      1 NMatT0=    0 NMatD0=    1 NMtDS0=    0 NMtDT0=    0
 Symmetry not used in FoFCou.
 Leave Link  703 at Wed Apr 13 10:13:18 2016, MaxMem=    33554432 cpu:        21.9
 (Enter /usr/local/gau/g09/l716.exe)
 Dipole        =-1.66912572D+00 3.64959177D-01-3.08118583D-01
 Polarizability= 0.00000000D+00 0.00000000D+00 0.00000000D+00
                 0.00000000D+00 0.00000000D+00 0.00000000D+00
 ***** Axes restored to original set *****
 -------------------------------------------------------------------
 Center     Atomic                   Forces (Hartrees/Bohr)
 Number     Number              X              Y              Z
 -------------------------------------------------------------------
      1        7           0.014980172    0.042661324    0.004191570
      2        1           0.002289562   -0.000118289    0.002936374
      3        6           0.020477481   -0.058404582    0.001030447
      4        1          -0.003428701    0.004394521    0.003378185
      5        6           0.000854916    0.003693956    0.007746158
      6        6          -0.068576172    0.053330671   -0.007395140
      7        1           0.002274790   -0.001870215   -0.000050202
      8        1          -0.000709870    0.000907418    0.000074626
      9        1          -0.000083805    0.001597505   -0.001006999
     10        8           0.040314941   -0.036141741    0.026360596
     11        1          -0.000041205    0.005993214   -0.018398165
     12        8           0.016165177    0.003010736   -0.004713369
     13        1          -0.024517286   -0.019054518   -0.014154083
 -------------------------------------------------------------------
 Cartesian Forces:  Max     0.068576172 RMS     0.022128542
 Force constants in Cartesian coordinates: 
                1             2             3             4             5 
      1  0.836976D+00
      2  0.727098D-02  0.753138D+00
      3  0.349815D-01 -0.592730D-01 -0.355263D-01
      4 -0.471811D+00 -0.295339D-01  0.259806D-01  0.489973D+00
      5 -0.215955D-01 -0.724944D-01  0.279000D-02  0.316974D-01  0.690162D-01
      6  0.527123D-01  0.479949D-03 -0.140521D-01 -0.341186D-01 -0.399594D-02
      7 -0.210473D+00 -0.918679D-01  0.404601D-01 -0.480254D-02 -0.384754D-01
      8 -0.172714D+00 -0.299375D+00  0.752623D-01  0.744342D-02  0.855513D-03
      9 -0.500620D-01 -0.180664D-01  0.500954D-01  0.285627D-02  0.355835D-02
     10  0.270345D-02  0.192891D-02 -0.193883D-02 -0.318034D-03 -0.460231D-03
     11 -0.834504D-03 -0.106069D-02  0.806465D-03  0.282072D-03 -0.254553D-03
     12  0.103752D-03 -0.227575D-02  0.556088D-03  0.409434D-03  0.191605D-03
     13  0.118425D-01 -0.211119D-01  0.877587D-03  0.193442D-02 -0.253865D-03
     14  0.269513D-01 -0.387019D-01 -0.486107D-02  0.117141D-02  0.203516D-02
     15 -0.553427D-02 -0.245898D-02  0.791082D-03 -0.426931D-03  0.435160D-03
     16  0.227921D-01  0.229955D-01 -0.511159D-01 -0.290248D-02  0.656885D-03
     17 -0.740100D-01 -0.309099D-01  0.206380D-01  0.463001D-02 -0.668037D-02
     18 -0.392572D-02  0.220166D-01  0.163077D-01  0.202819D-02  0.161146D-02
     19  0.264668D-02 -0.137298D-02 -0.544956D-03  0.320327D-03  0.131510D-03
     20 -0.169551D-02  0.357511D-02  0.180243D-03 -0.325012D-03 -0.650126D-03
     21  0.201849D-02  0.235565D-03 -0.179451D-02 -0.124081D-03  0.685802D-03
     22 -0.385341D-02  0.399309D-02  0.102842D-03 -0.221105D-03  0.182327D-03
     23  0.539167D-02 -0.322547D-02 -0.612660D-03  0.400686D-03  0.415733D-03
     24  0.302512D-04 -0.329925D-03  0.165340D-02 -0.528117D-05 -0.636025D-05
     25  0.332732D-02 -0.777778D-03 -0.296281D-02  0.189284D-03  0.345372D-03
     26 -0.278391D-02  0.285818D-02  0.281065D-02 -0.745046D-03 -0.473315D-03
     27 -0.118999D-02 -0.451699D-03  0.110477D-02  0.381896D-03 -0.929194D-03
     28  0.767652D-02 -0.924247D-02 -0.116001D-01 -0.109758D-02  0.171333D-02
     29  0.119644D-01  0.316942D-01 -0.139950D-01 -0.253533D-02  0.196704D-02
     30  0.204189D-01  0.122803D-02 -0.219344D-01 -0.477566D-03  0.952259D-04
     31 -0.190764D+00  0.179139D+00 -0.202036D-01 -0.898499D-02  0.281868D-01
     32  0.180578D+00 -0.338492D+00  0.340712D-01 -0.879591D-02  0.907108D-02
     33 -0.467390D-01  0.524696D-01  0.533991D-02  0.339474D-02 -0.366300D-02
     34 -0.135795D-01 -0.572361D-02  0.580289D-02  0.149379D-02 -0.111507D-02
     35 -0.637734D-02 -0.232603D-02  0.145369D-02  0.309651D-03 -0.127897D-04
     36  0.188365D-02  0.264190D-02  0.166401D-02 -0.503502D-03 -0.120335D-02
     37  0.251563D-02 -0.556968D-01 -0.198393D-01 -0.377317D-02 -0.101346D-02
     38  0.478548D-01 -0.468082D-02 -0.592708D-01 -0.399944D-02 -0.279527D-02
     39 -0.469783D-02  0.378414D-02 -0.420500D-02  0.604905D-03  0.430249D-03
                6             7             8             9            10 
      6  0.203902D-02
      7  0.373934D-02  0.862435D+00
      8  0.138187D-01  0.165321D-01  0.575147D+00
      9  0.394858D-02 -0.835969D-02 -0.525491D-01  0.309924D-01
     10 -0.111385D-03  0.321482D-03 -0.121496D-02  0.209246D-02  0.155444D+00
     11  0.449918D-03  0.624803D-03 -0.245761D-02 -0.309938D-02  0.649055D-01
     12  0.267966D-03  0.204519D-02  0.304946D-02 -0.302467D-02  0.204574D+00
     13  0.188707D-03 -0.134111D+00  0.592135D-01 -0.330827D-02 -0.597430D-03
     14 -0.879837D-03  0.546438D-01 -0.157926D+00  0.709793D-02 -0.548819D-03
     15  0.409419D-02 -0.556212D-02 -0.488968D-02 -0.774062D-01 -0.183422D-03
     16 -0.862889D-02 -0.503660D+00 -0.349286D-03  0.801770D-01 -0.216911D-01
     17  0.439858D-02 -0.683932D-01 -0.104122D+00 -0.424222D-01 -0.805402D-02
     18 -0.123850D-02 -0.393818D-01 -0.128691D-01 -0.194156D-02 -0.170950D-01
     19 -0.590378D-03 -0.200325D-01  0.503918D-02 -0.151154D-01  0.946657D-05
     20  0.907442D-03  0.216494D-01 -0.331786D-02  0.232874D-01  0.110988D-03
     21 -0.104060D-02  0.931707D-03  0.171855D-02  0.706576D-02  0.299215D-04
     22 -0.361811D-04  0.125249D-01  0.195787D-01 -0.494755D-04 -0.224535D-03
     23 -0.802083D-04 -0.158363D-01 -0.221578D-01  0.517541D-03  0.571804D-04
     24 -0.678633D-03  0.159826D-03 -0.135767D-04 -0.225654D-02 -0.522488D-03
     25  0.749239D-04 -0.181060D-01  0.486140D-02  0.182085D-01 -0.791050D-04
     26  0.139651D-03  0.184428D-01 -0.491763D-02 -0.262697D-01  0.262202D-03
     27 -0.384944D-03  0.518700D-03 -0.505506D-03  0.453008D-02 -0.643845D-04
     28 -0.241774D-02 -0.166054D-01  0.588168D-01 -0.537266D-02 -0.164936D-03
     29 -0.259554D-02  0.171914D-01 -0.182235D-01  0.449893D-01 -0.372480D-03
     30 -0.307304D-02  0.256138D-01  0.228933D-01  0.339495D-01 -0.200592D-02
     31 -0.633554D-02  0.137919D-01 -0.140615D-01  0.280513D-02  0.177362D-03
     32 -0.191147D-02  0.197332D-01 -0.223617D-01  0.716753D-02 -0.108643D-03
     33  0.316872D-02 -0.640237D-02 -0.215457D-01 -0.107884D-01  0.387471D-03
     34  0.827438D-03 -0.177496D-01 -0.396455D-01 -0.947958D-02 -0.135319D+00
     35  0.233516D-03 -0.369285D-02 -0.825473D-02  0.831762D-03 -0.545339D-01
     36  0.151600D-02 -0.328634D-02 -0.606441D-03  0.362265D-02 -0.187788D+00
     37 -0.530393D-02  0.364663D-01  0.565004D-01 -0.143923D-01 -0.261724D-03
     38 -0.109648D-01  0.694481D-01  0.671109D-01  0.549570D-01 -0.197176D-02
     39  0.543332D-02 -0.104764D-01 -0.237632D-01 -0.387871D-01  0.262531D-02
               11            12            13            14            15 
     11  0.480808D-01
     12  0.529683D-01  0.302480D+00
     13  0.571466D-03  0.445352D-03  0.543407D+00
     14  0.186526D-03  0.505886D-04  0.627877D-01  0.540723D+00
     15 -0.103169D-02 -0.562877D-03  0.125433D-02 -0.317428D-02  0.531477D+00
     16 -0.324435D-01  0.873094D-02 -0.255315D-01  0.839579D-02  0.104747D-01
     17 -0.169325D-01  0.764867D-02  0.333393D-01  0.565395D-02 -0.371357D-02
     18 -0.313159D-01  0.428706D-02  0.100019D-03  0.158070D-02  0.425436D-02
     19 -0.348533D-04 -0.100059D-03 -0.129692D+00 -0.407583D-02 -0.119619D+00
     20 -0.962684D-05 -0.134062D-03 -0.240708D-02 -0.491202D-01 -0.761535D-03
     21  0.100708D-03 -0.333202D-04 -0.119453D+00 -0.228125D-02 -0.215193D+00
     22 -0.146382D-03 -0.113770D-03 -0.130156D+00 -0.130194D+00 -0.507345D-03
     23  0.313324D-03 -0.337882D-04 -0.122898D+00 -0.245908D+00 -0.109110D-02
     24  0.351627D-03  0.963035D-04 -0.672640D-04 -0.530039D-03 -0.496783D-01
     25  0.173801D-03  0.166723D-03 -0.131753D+00 -0.608640D-02  0.121440D+00
     26 -0.176102D-03  0.488383D-05 -0.338422D-02 -0.488529D-01  0.205380D-02
     27  0.313948D-04  0.656285D-04  0.119581D+00  0.510232D-02 -0.211583D+00
     28  0.600391D-02  0.196067D-02 -0.214067D-02 -0.569698D-02  0.417325D-03
     29  0.974204D-03  0.868760D-03 -0.319299D-02  0.402234D-02  0.449361D-02
     30  0.564891D-02  0.925953D-03 -0.129443D-02 -0.163173D-02  0.895945D-02
     31 -0.322658D-04 -0.326969D-03 -0.245605D-02 -0.258577D-02 -0.657558D-04
     32 -0.339564D-03 -0.133639D-03 -0.465564D-02 -0.237699D-02  0.617834D-03
     33  0.177474D-03  0.975908D-04 -0.593377D-03  0.277075D-03 -0.518940D-03
     34 -0.366434D-01 -0.215476D+00  0.579021D-03  0.463236D-05  0.242012D-03
     35 -0.335364D-01 -0.647023D-01  0.177633D-02 -0.311045D-02  0.104337D-02
     36 -0.265774D-01 -0.304666D+00 -0.754464D-03 -0.772719D-03 -0.183984D-02
     37 -0.242663D-02 -0.241997D-02 -0.132576D-02 -0.476729D-02 -0.192996D-02
     38  0.521218D-02  0.249723D-02  0.215098D-03 -0.662453D-02  0.847706D-02
     39  0.148951D-02 -0.490367D-03  0.302364D-02  0.223166D-04  0.720647D-02
               16            17            18            19            20 
     16  0.727586D+00
     17  0.193170D+00  0.354721D+00
     18  0.246108D-01 -0.185884D-01  0.114469D+00
     19  0.268940D-02  0.244317D-02 -0.993846D-03  0.147444D+00
     20 -0.203768D-02 -0.385861D-02 -0.802468D-05 -0.301352D-02  0.510235D-01
     21 -0.243890D-03  0.109946D-02 -0.758777D-04  0.133636D+00  0.127918D-02
     22  0.789317D-03  0.195972D-02  0.741501D-03 -0.101470D-01 -0.162097D-01
     23 -0.199052D-02 -0.255509D-02 -0.251024D-03  0.102855D-02  0.104314D-02
     24  0.114220D-03  0.219449D-03  0.363072D-03 -0.155365D-01 -0.244669D-01
     25  0.775816D-03  0.259126D-02  0.170761D-02  0.111028D-01  0.368062D-03
     26  0.267277D-02 -0.596516D-02 -0.156317D-02 -0.440480D-03  0.183537D-03
     27 -0.202081D-02  0.770327D-03 -0.143451D-02  0.173672D-01  0.166475D-02
     28 -0.137613D+00  0.619000D-01 -0.909256D-03 -0.209327D-02  0.192115D-02
     29 -0.113625D-01 -0.771157D-01  0.179445D-04  0.173952D-02 -0.117004D-02
     30 -0.565693D-01  0.603588D-01 -0.379302D-01  0.885389D-03 -0.465326D-03
     31  0.256894D-02 -0.409330D-02  0.137719D-02 -0.176050D-03  0.290439D-03
     32  0.241517D-02 -0.409152D-02  0.933067D-03 -0.265902D-04  0.247062D-03
     33  0.679089D-02 -0.204663D-02 -0.159150D-02  0.484170D-03 -0.615514D-03
     34 -0.118670D+00 -0.892976D-01  0.402117D-03 -0.359063D-03 -0.190460D-03
     35 -0.750265D-01 -0.182962D+00  0.319284D-01 -0.272289D-03  0.116260D-02
     36 -0.270801D-01 -0.838128D-02 -0.651604D-01 -0.132738D-03  0.694740D-03
     37  0.528669D-01 -0.561855D-01  0.313382D-01 -0.171237D-02  0.153896D-02
     38 -0.107096D+00  0.748181D-01  0.650749D-02 -0.114539D-02  0.891548D-03
     39  0.147605D-01 -0.199813D-01 -0.303091D-01  0.259378D-03 -0.156239D-02
               21            22            23            24            25 
     21  0.235403D+00
     22  0.128488D-02  0.141194D+00
     23  0.645669D-03  0.135839D+00  0.269863D+00
     24  0.229092D-03  0.752081D-03  0.105061D-02  0.499307D-01
     25 -0.169454D-01 -0.964609D-02  0.988662D-03  0.152704D-01  0.147827D+00
     26 -0.718870D-03 -0.152227D-01  0.845703D-03  0.241638D-01  0.643141D-04
     27 -0.242493D-01 -0.148691D-02 -0.720657D-03  0.556353D-03 -0.134581D+00
     28 -0.756258D-03 -0.625428D-04  0.198734D-03  0.982292D-04 -0.157357D-02
     29 -0.141302D-03 -0.353309D-03  0.284997D-03  0.498149D-04  0.121069D-02
     30 -0.114359D-02 -0.202881D-03  0.413318D-04 -0.379649D-04 -0.133445D-02
     31  0.194537D-04  0.665721D-03 -0.751925D-03 -0.179432D-03 -0.147549D-03
     32  0.113468D-03  0.118512D-02 -0.818744D-03 -0.546909D-05 -0.935667D-04
     33  0.449865D-03  0.729554D-04 -0.187719D-03  0.555321D-03  0.313238D-03
     34  0.648359D-04 -0.162270D-02 -0.136438D-02  0.130902D-03 -0.776154D-03
     35 -0.320795D-03 -0.912993D-03  0.260793D-02 -0.388358D-03 -0.395110D-03
     36 -0.484736D-04 -0.157779D-03  0.118125D-03 -0.763916D-03 -0.150076D-04
     37 -0.463401D-03  0.759513D-03 -0.106315D-02 -0.244993D-03 -0.114017D-02
     38 -0.241618D-02  0.301232D-03 -0.708256D-03 -0.947132D-04 -0.325071D-02
     39  0.431278D-03 -0.399920D-03  0.603882D-03  0.310838D-04 -0.134280D-02
               26            27            28            29            30 
     26  0.499342D-01
     27 -0.420518D-02  0.232028D+00
     28  0.212017D-02  0.347854D-03  0.149506D+00
     29  0.103046D-02 -0.121763D-02 -0.860853D-01  0.142188D+00
     30  0.303404D-02 -0.126615D-03 -0.105911D-01 -0.386940D-01  0.539255D-02
     31  0.201924D-03 -0.102795D-03 -0.264185D-02  0.593341D-02 -0.205767D-02
     32  0.299312D-03 -0.881160D-04  0.264544D-02  0.330300D-02 -0.112380D-02
     33 -0.267690D-03 -0.200269D-03  0.429997D-02 -0.205123D-03  0.486584D-03
     34 -0.132074D-02  0.127915D-03  0.226083D-01  0.143896D-01  0.947095D-02
     35  0.129713D-02 -0.211282D-04 -0.146986D-01 -0.424777D-01 -0.162136D-02
     36 -0.464599D-04  0.271113D-04  0.728972D-02 -0.171096D-02  0.794968D-02
     37  0.132897D-03  0.112158D-02 -0.157975D-01  0.514729D-01  0.181443D-01
     38  0.393658D-02  0.570327D-03 -0.195963D-01 -0.464768D-01 -0.497634D-01
     39  0.864240D-03 -0.333147D-03  0.172334D-01  0.814013D-02  0.658211D-02
               31            32            33            34            35 
     31  0.184527D+00
     32 -0.187451D+00  0.360653D+00
     33  0.198011D-01 -0.477300D-01  0.131421D-01
     34 -0.388949D-03  0.321317D-03 -0.876720D-03  0.268557D+00
     35  0.960037D-03  0.183597D-02 -0.864351D-03  0.146489D+00  0.273552D+00
     36  0.680692D-03 -0.454075D-03  0.425296D-03  0.211009D+00  0.332012D-01
     37  0.382814D-02 -0.574648D-02  0.190669D-01 -0.477390D-02  0.637400D-02
     38 -0.573523D-02 -0.692900D-02  0.242016D-01  0.140958D-01 -0.777578D-02
     39  0.458820D-02  0.854349D-02 -0.105663D-01 -0.224636D-02 -0.773646D-03
               36            37            38            39 
     36  0.348418D+00
     37 -0.114526D-02 -0.676519D-01
     38  0.309666D-02  0.108800D-01 -0.759788D-01
     39  0.885547D-02 -0.239319D-01  0.222025D-01  0.561513D-01
 FormGI is forming the generalized inverse of G from B-inverse, IUseBI=4.
 Leave Link  716 at Wed Apr 13 10:13:18 2016, MaxMem=    33554432 cpu:         0.0
 (Enter /usr/local/gau/g09/l103.exe)

 GradGradGradGradGradGradGradGradGradGradGradGradGradGradGradGradGradGrad
 Berny optimization.
 Red2BG is reusing G-inverse.
 Internal  Forces:  Max     0.054265118 RMS     0.011901089
 Search for a saddle point.
 Step number   1 out of a maximum of   74
 All quantities printed in internal units (Hartrees-Bohrs-Radians)
 Swapping is turned off.
 Second derivative matrix not updated -- analytic derivatives used.
 ITU=  0
     Eigenvalues ---   -0.19920  -0.06007  -0.00342  -0.00008   0.00132
     Eigenvalues ---    0.00145   0.00924   0.01733   0.01870   0.02090
     Eigenvalues ---    0.02975   0.04200   0.04867   0.04889   0.06037
     Eigenvalues ---    0.09056   0.10934   0.12711   0.13306   0.14433
     Eigenvalues ---    0.15321   0.16413   0.24807   0.31489   0.32949
     Eigenvalues ---    0.33585   0.34672   0.35344   0.35758   0.42558
     Eigenvalues ---    0.46534   0.49530   0.52387
 Eigenvectors required to have negative eigenvalues:
                          A18       R7        D22       D21       D4
   1                    0.49418  -0.36770   0.28011  -0.24637   0.21938
                          R15       A15       A8        D23       R12
   1                    0.21013   0.19706  -0.19611   0.17678  -0.17319
 Eigenvalue     2 is  -6.01D-02 should be greater than     0.000000 Eigenvector:
                          R4        R14       D4        D3        D12
   1                   -0.54165   0.43797  -0.26795  -0.23748   0.21285
                          D13       D14       A3        A23       D24
   1                    0.20432   0.20152  -0.19236  -0.12408   0.12270
 Eigenvalue     3 is  -3.42D-03 should be greater than     0.000000 Eigenvector:
                          D21       D22       D20       D4        D15
   1                   -0.58008  -0.57369  -0.52821  -0.10224   0.09988
                          D2        D3        R7        D17       D10
   1                   -0.07628  -0.05958   0.05611   0.05463   0.05218
 Eigenvalue     4 is  -7.98D-05 should be greater than     0.000000 Eigenvector:
                          D1        D2        A3        D4        A4
   1                    0.62696   0.52075   0.45882  -0.17784  -0.08992
                          D5        D17       D19       D10       D11
   1                    0.08662  -0.08588   0.08380   0.08127   0.08107
 RFO step:  Lambda0=6.636994177D-04 Lambda=-6.02559318D-02.
 Linear search not attempted -- option 19 set.
 Maximum step size (   0.300) exceeded in Quadratic search.
    -- Step size scaled by   0.436
 Iteration  1 RMS(Cart)=  0.06302694 RMS(Int)=  0.00538446
 Iteration  2 RMS(Cart)=  0.00415627 RMS(Int)=  0.00217092
 Iteration  3 RMS(Cart)=  0.00002146 RMS(Int)=  0.00217086
 Iteration  4 RMS(Cart)=  0.00000003 RMS(Int)=  0.00217086
 ITry= 1 IFail=0 DXMaxC= 2.05D-01 DCOld= 1.00D+10 DXMaxT= 3.00D-01 DXLimC= 3.00D+00 Rises=F
 Variable       Old X    -DE/DX   Delta X   Delta X   Delta X     New X
                                 (Linear)    (Quad)   (Total)
    R1        1.89636   0.00202   0.00000   0.00328   0.00328   1.89964
    R2        2.63279   0.03423   0.00000   0.08306   0.08379   2.71657
    R3        1.89992  -0.00084   0.00000   0.00222   0.00633   1.90625
    R4        3.12004   0.00675   0.00000  -0.17847  -0.18360   2.93644
    R5        2.84087  -0.00207   0.00000  -0.01585  -0.01585   2.82501
    R6        2.54221   0.02620   0.00000   0.02067   0.02100   2.56321
    R7        3.02356   0.00317   0.00000  -0.08489  -0.08516   2.93840
    R8        1.85600  -0.00159   0.00000  -0.00284  -0.00284   1.85316
    R9        2.07561   0.00130   0.00000   0.00308   0.00308   2.07869
   R10        2.06050  -0.00039   0.00000   0.00017   0.00017   2.06067
   R11        2.07718   0.00077   0.00000   0.00290   0.00290   2.08007
   R12        2.73555  -0.05427   0.00000  -0.12788  -0.12788   2.60768
   R13        2.64885  -0.01279   0.00000  -0.00556  -0.00556   2.64330
   R14        3.16436  -0.02340   0.00000   0.03051   0.03002   3.19438
   R15        3.19514   0.01124   0.00000   0.04885   0.05094   3.24608
    A1        2.10258  -0.00077   0.00000  -0.01428  -0.01558   2.08700
    A2        2.07788   0.00468   0.00000   0.00976   0.01023   2.08811
    A3        2.56021   0.00370   0.00000  -0.06912  -0.06939   2.49082
    A4        2.08053  -0.00543   0.00000  -0.01784  -0.02252   2.05801
    A5        2.03345   0.00424   0.00000   0.03164   0.03339   2.06684
    A6        2.10966  -0.02229   0.00000  -0.06505  -0.06711   2.04256
    A7        2.14004   0.01805   0.00000   0.03332   0.03355   2.17360
    A8        2.44196   0.00655   0.00000  -0.03365  -0.03171   2.41025
    A9        1.93153   0.00458   0.00000   0.01575   0.01576   1.94729
   A10        1.93081  -0.00171   0.00000  -0.01051  -0.01050   1.92031
   A11        1.93804  -0.00305   0.00000   0.00108   0.00105   1.93908
   A12        1.88943  -0.00071   0.00000  -0.00128  -0.00124   1.88819
   A13        1.87473  -0.00074   0.00000  -0.00521  -0.00524   1.86949
   A14        1.89759   0.00168   0.00000   0.00007   0.00005   1.89764
   A15        2.05881  -0.00400   0.00000   0.01554   0.01323   2.07203
   A16        2.16418  -0.01076   0.00000  -0.03386  -0.03239   2.13180
   A17        2.06019   0.01480   0.00000   0.01848   0.01789   2.07808
   A18        1.26995  -0.01924   0.00000   0.00393   0.00303   1.27298
   A19        2.39716   0.00270   0.00000   0.01988   0.01986   2.41702
   A20        1.93088  -0.00259   0.00000  -0.01102  -0.01102   1.91985
   A21        1.59693   0.01652   0.00000   0.05130   0.05134   1.64827
   A22        1.36607   0.00623   0.00000   0.03175   0.03039   1.39646
   A23        1.75843   0.00257   0.00000  -0.05662  -0.05816   1.70027
    D1        0.10954  -0.00307   0.00000  -0.01981  -0.01959   0.08995
    D2       -3.04060  -0.00400   0.00000  -0.03157  -0.03122  -3.07182
    D3        3.02427  -0.01011   0.00000  -0.13113  -0.12833   2.89594
    D4       -0.12587  -0.01104   0.00000  -0.14290  -0.13996  -0.26583
    D5       -2.32624  -0.00271   0.00000  -0.02848  -0.02956  -2.35580
    D6        1.03078  -0.00082   0.00000  -0.02886  -0.02895   1.00183
    D7        3.12490   0.00016   0.00000  -0.02705  -0.02718   3.09772
    D8       -1.04963  -0.00090   0.00000  -0.03331  -0.03342  -1.08305
    D9       -2.10210   0.00035   0.00000  -0.01635  -0.01584  -2.11794
   D10       -0.00799   0.00133   0.00000  -0.01454  -0.01407  -0.02206
   D11        2.10067   0.00026   0.00000  -0.02080  -0.02031   2.08036
   D12       -0.44150  -0.00071   0.00000   0.05909   0.05873  -0.38277
   D13        1.65262   0.00027   0.00000   0.06089   0.06050   1.71312
   D14       -2.52191  -0.00079   0.00000   0.05464   0.05426  -2.46765
   D15        0.11445  -0.01958   0.00000  -0.07144  -0.07002   0.04443
   D16       -3.03040  -0.00379   0.00000  -0.01221  -0.01188  -3.04228
   D17       -3.03622  -0.02065   0.00000  -0.08399  -0.08248  -3.11871
   D18        0.10211  -0.00487   0.00000  -0.02476  -0.02434   0.07778
   D19        2.23790   0.00102   0.00000   0.04195   0.03981   2.27771
   D20       -2.06781  -0.00996   0.00000  -0.18000  -0.17915  -2.24695
   D21        1.07053   0.00581   0.00000  -0.12073  -0.12081   0.94972
   D22        2.72405  -0.00656   0.00000  -0.08107  -0.08184   2.64221
   D23       -1.84423   0.00220   0.00000   0.01269   0.01739  -1.82684
   D24       -1.25110   0.00434   0.00000   0.05288   0.04464  -1.20645
   D25        2.46791   0.00010   0.00000  -0.02122  -0.01573   2.45218
   D26        3.06104   0.00224   0.00000   0.01897   0.01152   3.07256
         Item               Value     Threshold  Converged?
 Maximum Force            0.054265     0.000450     NO 
 RMS     Force            0.011901     0.000300     NO 
 Maximum Displacement     0.204610     0.001800     NO 
 RMS     Displacement     0.062456     0.001200     NO 
 Predicted change in Energy=-2.150282D-02
 Lowest energy point so far.  Saving SCF results.
 GradGradGradGradGradGradGradGradGradGradGradGradGradGradGradGradGradGrad

 Leave Link  103 at Wed Apr 13 10:13:18 2016, MaxMem=    33554432 cpu:         0.0
 (Enter /usr/local/gau/g09/l202.exe)
                          Input orientation:                          
 ---------------------------------------------------------------------
 Center     Atomic      Atomic             Coordinates (Angstroms)
 Number     Number       Type             X           Y           Z
 ---------------------------------------------------------------------
      1          7           0        1.059899    1.128541    0.195453
      2          1           0        2.059003    1.232358    0.156272
      3          6           0        0.480727   -0.186296    0.147364
      4          1           0       -2.200365   -1.550140   -0.542207
      5          6           0        1.396389   -1.367936    0.157812
      6          6           0       -0.873220   -0.262830    0.119629
      7          1           0        2.047085   -1.367514    1.044709
      8          1           0        0.815267   -2.290637    0.162513
      9          1           0        2.052971   -1.368307   -0.725648
     10          8           0       -1.602951    0.907849    0.085147
     11          1           0        0.467592    1.913952   -0.027849
     12          8           0       -1.551147   -1.484325    0.189814
     13          1           0       -0.114440    0.825661    1.166943
 ---------------------------------------------------------------------
                    Distance matrix (angstroms):
                    1          2          3          4          5
     1  N    0.000000
     2  H    1.005247   0.000000
     3  C    1.437549   2.122172   0.000000
     4  H    4.283549   5.135405   3.086071   0.000000
     5  C    2.519333   2.683391   1.494932   3.668769   0.000000
     6  C    2.382983   3.291634   1.356391   1.963800   2.524647
     7  H    2.815326   2.747507   2.157309   4.537895   1.099996
     8  H    3.428076   3.736096   2.130821   3.184180   1.090460
     9  H    2.840575   2.746138   2.152035   4.261171   1.100728
    10  O    2.674256   3.676992   2.354302   2.606183   3.765703
    11  H    1.008743   1.740993   2.107585   4.402556   3.415834
    12  O    3.693868   4.518260   2.411471   0.980648   2.950007
    13  H    1.553899   2.431195   1.554935   3.593982   2.848301
                    6          7          8          9         10
     6  C    0.000000
     7  H    3.256422   0.000000
     8  H    2.639097   1.774204   0.000000
     9  H    3.240242   1.770367   1.780852   0.000000
    10  O    1.379922   4.406904   4.010496   4.382242   0.000000
    11  H    2.560841   3.796472   4.223232   3.711277   2.304813
    12  O    1.398772   3.700239   2.500160   3.720376   2.395024
    13  H    1.690392   3.081745   3.403608   3.618435   1.841929
                   11         12         13
    11  H    0.000000
    12  O    3.958658   0.000000
    13  H    1.717750   2.890493   0.000000
 Stoichiometry    C3H7NO2
 Framework group  C1[X(C3H7NO2)]
 Deg. of freedom    33
 Full point group                 C1      NOp   1
 RotChk:  IX=0 Diff= 4.21D-02
 Largest Abelian subgroup         C1      NOp   1
 Largest concise Abelian subgroup C1      NOp   1
                         Standard orientation:                         
 ---------------------------------------------------------------------
 Center     Atomic      Atomic             Coordinates (Angstroms)
 Number     Number       Type             X           Y           Z
 ---------------------------------------------------------------------
      1          7           0       -1.332535   -1.209273   -0.012653
      2          1           0       -2.335406   -1.207627   -0.081710
      3          6           0       -0.618495    0.038353   -0.023735
      4          1           0        2.209315    1.123195   -0.615719
      5          6           0       -1.406110    1.308973   -0.020693
      6          6           0        0.736287   -0.026655   -0.011946
      7          1           0       -2.079434    1.365343    0.847321
      8          1           0       -0.732514    2.165771    0.014901
      9          1           0       -2.032490    1.389099   -0.922264
     10          8           0        1.340920   -1.266644   -0.044097
     11          1           0       -0.818801   -2.049391   -0.231380
     12          8           0        1.535266    1.116337    0.096518
     13          1           0       -0.162501   -1.043044    0.996301
 ---------------------------------------------------------------------
 Rotational constants (GHZ):      4.7471993      3.3885304      2.0279434
 Leave Link  202 at Wed Apr 13 10:13:18 2016, MaxMem=    33554432 cpu:         0.0
 (Enter /usr/local/gau/g09/l301.exe)
 Standard basis: 6-31G (6D, 7F)
 Ernie: Thresh=  0.10000D-02 Tol=  0.10000D-05 Strict=F.
 There are    68 symmetry adapted cartesian basis functions of A   symmetry.
 There are    68 symmetry adapted basis functions of A   symmetry.
    68 basis functions,   160 primitive gaussians,    68 cartesian basis functions
    24 alpha electrons       24 beta electrons
       nuclear repulsion energy       246.4467338142 Hartrees.
 IExCor=  402 DFT=T Ex+Corr=B3LYP ExCW=0 ScaHFX=  0.200000
 ScaDFX=  0.800000  0.720000  1.000000  0.810000 ScalE2=  1.000000  1.000000
 IRadAn=      0 IRanWt=     -1 IRanGd=            0 ICorTp=0 IEmpDi=  4
 NAtoms=   13 NActive=   13 NUniq=   13 SFac= 1.00D+00 NAtFMM=   60 NAOKFM=F Big=F
 Integral buffers will be    131072 words long.
 Raffenetti 2 integral format.
 Two-electron integral symmetry is turned on.
 Leave Link  301 at Wed Apr 13 10:13:18 2016, MaxMem=    33554432 cpu:         0.0
 (Enter /usr/local/gau/g09/l302.exe)
 NPDir=0 NMtPBC=     1 NCelOv=     1 NCel=       1 NClECP=     1 NCelD=      1
         NCelK=      1 NCelE2=     1 NClLst=     1 CellRange=     0.0.
 One-electron integrals computed using PRISM.
 NBasis=    68 RedAO= T EigKep=  2.91D-03  NBF=    68
 NBsUse=    68 1.00D-06 EigRej= -1.00D+00 NBFU=    68
 Precomputing XC quadrature grid using
 IXCGrd= 4 IRadAn=           0 IRanWt=          -1 IRanGd=           0 AccXCQ= 0.00D+00.
 Generated NRdTot=       0 NPtTot=           0 NUsed=           0 NTot=          32
 NSgBfM=    68    68    68    68    68 MxSgAt=    13 MxSgA2=    13.
 Leave Link  302 at Wed Apr 13 10:13:18 2016, MaxMem=    33554432 cpu:         0.2
 (Enter /usr/local/gau/g09/l303.exe)
 DipDrv:  MaxL=1.
 Leave Link  303 at Wed Apr 13 10:13:18 2016, MaxMem=    33554432 cpu:         0.0
 (Enter /usr/local/gau/g09/l401.exe)
 Initial guess from the checkpoint file:  "Ala-S-opt-freq-tsa3-6-31g.chk"
 B after Tr=     0.000000    0.000000    0.000000
         Rot=    0.999951    0.000447    0.001813    0.009693 Ang=   1.13 deg.
 Guess basis will be translated and rotated to current coordinates.
 JPrj=2 DoOrth=T DoCkMO=T.
 Generating alternative initial guess.
 ExpMin= 1.61D-01 ExpMax= 5.48D+03 ExpMxC= 8.25D+02 IAcc=1 IRadAn=         1 AccDes= 0.00D+00
 Harris functional with IExCor=  402 and IRadAn=       1 diagonalized for initial guess.
 HarFok:  IExCor=  402 AccDes= 0.00D+00 IRadAn=         1 IDoV= 1 UseB2=F ITyADJ=14
 ICtDFT=  3500011 ScaDFX=  1.000000  1.000000  1.000000  1.000000
 FoFCou: FMM=F IPFlag=           0 FMFlag=      100000 FMFlg1=           0
         NFxFlg=           0 DoJE=T BraDBF=F KetDBF=T FulRan=T
         wScrn=  0.000000 ICntrl=     500 IOpCl=  0 I1Cent=   200000004 NGrid=           0
         NMat0=    1 NMatS0=      1 NMatT0=    0 NMatD0=    1 NMtDS0=    0 NMtDT0=    0
 Petite list used in FoFCou.
 Harris En= -323.530481960989    
 Leave Link  401 at Wed Apr 13 10:13:18 2016, MaxMem=    33554432 cpu:         0.4
 (Enter /usr/local/gau/g09/l502.exe)
 Closed shell SCF:
 Using DIIS extrapolation, IDIIS=  1040.
 Integral symmetry usage will be decided dynamically.
 Keep R1 ints in memory in canonical form, NReq=3676491.
 IVT=       33364 IEndB=       33364 NGot=    33554432 MDV=    30768038
 LenX=    30768038 LenY=    30762973
 Requested convergence on RMS density matrix=1.00D-08 within 128 cycles.
 Requested convergence on MAX density matrix=1.00D-06.
 Requested convergence on             energy=1.00D-06.
 No special actions if energy rises.
 FoFCou: FMM=F IPFlag=           0 FMFlag=           0 FMFlg1=           0
         NFxFlg=           0 DoJE=F BraDBF=F KetDBF=F FulRan=T
         wScrn=  0.000000 ICntrl=     600 IOpCl=  0 I1Cent=           0 NGrid=           0
         NMat0=    1 NMatS0=   2346 NMatT0=    0 NMatD0=    1 NMtDS0=    0 NMtDT0=    0
 Symmetry not used in FoFCou.
 Integral accuracy reduced to 1.0D-05 until final iterations.

 Cycle   1  Pass 0  IDiag  1:
 E= -323.433085791531    
 DIIS: error= 6.18D-03 at cycle   1 NSaved=   1.
 NSaved= 1 IEnMin= 1 EnMin= -323.433085791531     IErMin= 1 ErrMin= 6.18D-03
 ErrMax= 6.18D-03  0.00D+00 EMaxC= 1.00D-01 BMatC= 6.41D-03 BMatP= 6.41D-03
 IDIUse=3 WtCom= 9.38D-01 WtEn= 6.18D-02
 Coeff-Com:  0.100D+01
 Coeff-En:   0.100D+01
 Coeff:      0.100D+01
 Gap=     0.522 Goal=   None    Shift=    0.000
 GapD=    0.522 DampG=2.000 DampE=1.000 DampFc=2.0000 IDamp=-1.
 RMSDP=3.65D-03 MaxDP=2.92D-02              OVMax= 6.61D-02

 Cycle   2  Pass 0  IDiag  1:
 E= -323.447027413540     Delta-E=       -0.013941622009 Rises=F Damp=F
 DIIS: error= 5.29D-03 at cycle   2 NSaved=   2.
 NSaved= 2 IEnMin= 2 EnMin= -323.447027413540     IErMin= 2 ErrMin= 5.29D-03
 ErrMax= 5.29D-03  0.00D+00 EMaxC= 1.00D-01 BMatC= 2.06D-03 BMatP= 6.41D-03
 IDIUse=3 WtCom= 9.47D-01 WtEn= 5.29D-02
 Coeff-Com:  0.257D+00 0.743D+00
 Coeff-En:   0.000D+00 0.100D+01
 Coeff:      0.244D+00 0.756D+00
 Gap=     0.115 Goal=   None    Shift=    0.000
 RMSDP=2.15D-03 MaxDP=2.80D-02 DE=-1.39D-02 OVMax= 4.72D-02

 Cycle   3  Pass 0  IDiag  1:
 E= -323.443100860954     Delta-E=        0.003926552586 Rises=F Damp=F
 DIIS: error= 9.44D-03 at cycle   3 NSaved=   3.
[...]
    D8       -1.09771   0.00000   0.00000   0.00052   0.00052  -1.09719
    D9       -2.84481   0.00000   0.00000   0.00026   0.00026  -2.84455
   D10       -0.77375   0.00000   0.00000   0.00028   0.00028  -0.77347
   D11        1.30305   0.00000   0.00000   0.00024   0.00024   1.30329
   D12        0.12058   0.00001   0.00000   0.00047   0.00047   0.12105
   D13        2.19165   0.00001   0.00000   0.00049   0.00049   2.19213
   D14       -2.01474   0.00001   0.00000   0.00045   0.00045  -2.01429
   D15       -0.14284   0.00000   0.00000   0.00040   0.00040  -0.14244
   D16        3.03698   0.00001   0.00000   0.00050   0.00050   3.03748
   D17       -2.58737   0.00000   0.00000   0.00061   0.00061  -2.58676
   D18        0.59245   0.00000   0.00000   0.00070   0.00070   0.59315
   D19        2.20740   0.00000   0.00000  -0.00055  -0.00055   2.20685
   D20        3.06461   0.00000   0.00000   0.00059   0.00059   3.06521
   D21       -0.04060   0.00001   0.00000   0.00068   0.00068  -0.03992
   D22        2.53204   0.00000   0.00000   0.00023   0.00023   2.53227
   D23       -1.14016   0.00001   0.00000   0.00019   0.00019  -1.13997
   D24       -0.66171   0.00000   0.00000  -0.00012  -0.00012  -0.66183
   D25        2.48962   0.00001   0.00000   0.00057   0.00057   2.49019
   D26        2.96807   0.00000   0.00000   0.00026   0.00026   2.96833
         Item               Value     Threshold  Converged?
 Maximum Force            0.000047     0.000450     YES
 RMS     Force            0.000008     0.000300     YES
 Maximum Displacement     0.001519     0.001800     YES
 RMS     Displacement     0.000404     0.001200     YES
 Predicted change in Energy=-3.862604D-08
 Optimization completed.
    -- Stationary point found.
                           ----------------------------
                           !   Optimized Parameters   !
                           ! (Angstroms and Degrees)  !
 --------------------------                            --------------------------
 ! Name  Definition              Value          Derivative Info.                !
 --------------------------------------------------------------------------------
 ! R1    R(1,2)                  1.0152         -DE/DX =    0.0                 !
 ! R2    R(1,3)                  1.6005         -DE/DX =    0.0                 !
 ! R3    R(1,11)                 1.0223         -DE/DX =    0.0                 !
 ! R4    R(1,13)                 1.1905         -DE/DX =    0.0                 !
 ! R5    R(3,5)                  1.4986         -DE/DX =    0.0                 !
 ! R6    R(3,6)                  1.4236         -DE/DX =    0.0                 !
 ! R7    R(3,13)                 1.3667         -DE/DX =    0.0                 !
 ! R8    R(4,12)                 0.9803         -DE/DX =    0.0                 !
 ! R9    R(5,7)                  1.0969         -DE/DX =    0.0                 !
 ! R10   R(5,8)                  1.0936         -DE/DX =    0.0                 !
 ! R11   R(5,9)                  1.1038         -DE/DX =    0.0                 !
 ! R12   R(6,10)                 1.2613         -DE/DX =    0.0                 !
 ! R13   R(6,12)                 1.3906         -DE/DX =    0.0                 !
 ! R14   R(6,13)                 2.3472         -DE/DX =    0.0                 !
 ! R15   R(11,13)                1.8872         -DE/DX =    0.0                 !
 ! A1    A(2,1,3)              115.588          -DE/DX =    0.0                 !
 ! A2    A(2,1,11)             117.2217         -DE/DX =    0.0                 !
 ! A3    A(2,1,13)             123.9656         -DE/DX =    0.0                 !
 ! A4    A(3,1,11)             109.3236         -DE/DX =    0.0                 !
 ! A5    A(1,3,5)              115.0478         -DE/DX =    0.0                 !
 ! A6    A(1,3,6)              107.7433         -DE/DX =    0.0                 !
 ! A7    A(5,3,6)              125.0017         -DE/DX =    0.0                 !
 ! A8    A(5,3,13)             119.7817         -DE/DX =    0.0                 !
 ! A9    A(3,5,7)              112.5116         -DE/DX =    0.0                 !
 ! A10   A(3,5,8)              108.4393         -DE/DX =    0.0                 !
 ! A11   A(3,5,9)              112.8045         -DE/DX =    0.0                 !
 ! A12   A(7,5,8)              107.4132         -DE/DX =    0.0                 !
 ! A13   A(7,5,9)              107.8916         -DE/DX =    0.0                 !
 ! A14   A(8,5,9)              107.5335         -DE/DX =    0.0                 !
 ! A15   A(3,6,10)             125.2047         -DE/DX =    0.0                 !
 ! A16   A(3,6,12)             113.9377         -DE/DX =    0.0                 !
 ! A17   A(10,6,12)            120.8211         -DE/DX =    0.0                 !
 ! A18   A(10,6,13)             99.4504         -DE/DX =    0.0                 !
 ! A19   A(12,6,13)            134.0213         -DE/DX =    0.0                 !
 ! A20   A(4,12,6)             108.4124         -DE/DX =    0.0                 !
 ! A21   A(1,13,6)              80.2141         -DE/DX =    0.0                 !
 ! A22   A(3,13,11)             81.7526         -DE/DX =    0.0                 !
 ! A23   A(6,13,11)             68.2289         -DE/DX =    0.0                 !
 ! D1    D(2,1,3,5)              6.978          -DE/DX =    0.0                 !
 ! D2    D(2,1,3,6)           -137.5401         -DE/DX =    0.0                 !
 ! D3    D(11,1,3,5)           141.8375         -DE/DX =    0.0                 !
 ! D4    D(11,1,3,6)            -2.6805         -DE/DX =    0.0                 !
 ! D5    D(2,1,13,6)          -134.2475         -DE/DX =    0.0                 !
 ! D6    D(1,3,5,7)             59.4507         -DE/DX =    0.0                 !
 ! D7    D(1,3,5,8)            178.114          -DE/DX =    0.0                 !
 ! D8    D(1,3,5,9)            -62.8942         -DE/DX =    0.0                 !
 ! D9    D(6,3,5,7)           -162.9958         -DE/DX =    0.0                 !
 ! D10   D(6,3,5,8)            -44.3325         -DE/DX =    0.0                 !
 ! D11   D(6,3,5,9)             74.6593         -DE/DX =    0.0                 !
 ! D12   D(13,3,5,7)             6.9087         -DE/DX =    0.0                 !
 ! D13   D(13,3,5,8)           125.572          -DE/DX =    0.0                 !
 ! D14   D(13,3,5,9)          -115.4362         -DE/DX =    0.0                 !
 ! D15   D(1,3,6,10)            -8.1843         -DE/DX =    0.0                 !
 ! D16   D(1,3,6,12)           174.0062         -DE/DX =    0.0                 !
 ! D17   D(5,3,6,10)          -148.2455         -DE/DX =    0.0                 !
 ! D18   D(5,3,6,12)            33.9449         -DE/DX =    0.0                 !
 ! D19   D(5,3,13,11)          126.4744         -DE/DX =    0.0                 !
 ! D20   D(3,6,12,4)           175.5894         -DE/DX =    0.0                 !
 ! D21   D(10,6,12,4)           -2.3265         -DE/DX =    0.0                 !
 ! D22   D(13,6,12,4)          145.075          -DE/DX =    0.0                 !
 ! D23   D(10,6,13,1)          -65.3264         -DE/DX =    0.0                 !
 ! D24   D(10,6,13,11)         -37.9133         -DE/DX =    0.0                 !
 ! D25   D(12,6,13,1)          142.6448         -DE/DX =    0.0                 !
 ! D26   D(12,6,13,11)         170.0579         -DE/DX =    0.0                 !
 --------------------------------------------------------------------------------
 GradGradGradGradGradGradGradGradGradGradGradGradGradGradGradGradGradGrad

 Leave Link  103 at Wed Apr 13 10:23:29 2016, MaxMem=    33554432 cpu:         0.0
 (Enter /usr/local/gau/g09/l9999.exe)

 Test job not archived.
 1\1\GINC-KALI\Freq\RB3LYP\6-31G\C3H7N1O2\ROOT\13-Apr-2016\0\\#P Geom=A
 llCheck Guess=TCheck SCRF=Check Test GenChk RB3LYP/6-31G Freq\\Ala-S-o
 pt-freq-tsa3-6-31g\\0,1\N,0.9644660957,1.2262118042,0.3894286683\H,1.9
 232284605,1.3067550098,0.065633364\C,0.3892451053,-0.2643933833,0.4825
 577166\H,-2.4477751789,-1.4005364075,-0.4233585292\C,1.3938994795,-1.3
 487146615,0.2360996227\C,-0.9388116161,-0.2497588913,-0.0300805992\H,2
 .2292367991,-1.3166070509,0.9463003496\H,0.896955913,-2.3151010914,0.3
 58831705\H,1.8146337655,-1.3183166656,-0.7838753622\O,-1.5882548943,0.
 7869303187,-0.3373761382\H,0.2688808091,1.8301501502,-0.0538597128\O,-
 1.5182149832,-1.5098229293,-0.131970588\H,0.6493224648,0.703581308,1.4
 116206434\\Version=ES64L-G09RevD.01\State=1-A\HF=-323.5358614\RMSD=3.5
 05e-09\RMSF=1.649e-05\ZeroPoint=0.1023363\Thermal=0.1091572\Dipole=1.1
 374883,0.1768057,-0.0152704\DipoleDeriv=-0.4959443,-0.3477685,-0.15848
 43,-0.4337277,-1.0519779,-0.3330174,0.3552499,0.3550104,-0.249248,0.10
 03997,-0.026514,0.0451405,-0.0169028,0.2086598,0.025435,0.1740203,0.15
 43459,0.2954942,-0.6221508,-0.0566837,-0.1981299,-0.1135625,0.05777,-0
 .0544995,-0.8855835,-0.4443508,-0.6585514,0.2036685,0.0543153,-0.06043
 28,0.1516491,0.300702,0.0504169,-0.0556341,0.0182303,0.3792845,0.20640
 63,-0.1296529,-0.0456157,-0.1429288,-0.0189153,0.0308101,0.0617291,-0.
 0223076,0.2994685,1.7371153,0.2589162,0.5394339,0.1830293,1.2799438,-0
 .0962621,0.554791,-0.0417709,0.5395947,-0.1081837,0.0822413,-0.0924425
 ,-0.0149616,0.0683905,-0.0440023,-0.1094491,0.0064901,-0.0395726,0.081
 3289,-0.0565021,0.0177874,-0.0451288,-0.0331003,0.0165743,0.0218036,0.
 0101299,0.1004479,-0.0741839,0.0972933,0.0900826,0.0361355,0.0194075,0
 .0397481,0.1705889,-0.0428987,-0.1565774,-0.9893085,0.1869633,-0.19988
 16,0.3604461,-0.8954432,0.2078732,-0.1878511,0.1312941,-0.500425,0.235
 2973,0.0522824,-0.0155972,-0.0232507,0.2353018,0.0327388,0.0793316,0.1
 451355,0.2850662,-0.6454078,-0.4593041,-0.0183439,-0.6100045,-1.054345
 5,-0.1547055,-0.0110138,-0.0946489,-0.4842748,0.370963,0.3444136,0.096
 4835,0.6692076,0.8836066,0.2788903,-0.1679827,-0.1746594,0.1892932\Pol
 ar=58.2851901,3.5921591,52.8051659,7.743384,0.5697015,31.5243654\PG=C0
 1 [X(C3H7N1O2)]\NImag=1\\0.76124986,-0.10376105,0.35731144,-0.00984665
 ,-0.12888846,0.25366856,-0.40089770,-0.01492974,0.10226593,0.41449880,
 -0.01588939,-0.05343473,0.02287328,0.02434595,0.05229424,0.13350643,0.
 02185953,-0.08054836,-0.11875545,-0.01911283,0.06513584,-0.08918595,-0
 .04004935,0.04975980,-0.00564799,-0.03093731,-0.00224556,0.60288919,-0
 .03522041,-0.12380229,0.09348401,0.00104885,-0.00124088,0.01418155,-0.
 10697023,0.37287987,-0.03236539,-0.06617416,0.05090210,0.00482625,0.00
 751947,0.00319011,0.05031293,0.01403424,0.14369421,0.00103361,0.000787
 08,-0.00130257,0.00022780,0.00013165,-0.00045909,0.00305203,-0.0020020
 7,0.00305150,0.43283756,-0.00089949,0.00003966,-0.00110569,0.00009681,
 -0.00038022,-0.00033893,0.00154404,-0.00576821,0.00278273,-0.02582703,
 0.05229726,-0.00089104,0.00119219,0.00027548,-0.00010885,-0.00048388,0
 .00012050,-0.00027539,-0.00025804,0.00414982,0.13155521,-0.00972198,0.
 05124916,0.01048588,-0.02055763,-0.00235470,0.00227213,0.00055035,-0.0
 0037226,-0.15520174,0.07955631,0.01015816,0.00036544,0.00033380,-0.000
 31293,0.54458264,0.01923888,-0.02617125,-0.00996727,0.00165741,0.00379
 258,0.00003423,0.06572197,-0.14055865,-0.01079478,0.00006914,-0.000286
 37,0.00032777,0.04302674,0.52775827,-0.01035394,0.00933412,-0.00271512
 ,-0.00226184,0.00032526,0.00509126,0.02791482,-0.03353648,-0.06017727,
 -0.00016843,0.00024388,-0.00045983,0.02134952,-0.01340163,0.53194296,-
 0.00870731,0.01846264,-0.03954486,-0.00136187,0.00279341,-0.00784610,-
 0.28257371,0.01380389,-0.01483585,-0.03213195,-0.05828651,-0.00591935,
 -0.01842167,0.00755505,-0.01680218,0.72309834,-0.03746654,-0.03011476,
 -0.00444664,0.00228644,-0.00616954,-0.00068916,0.00718271,-0.07685986,
 -0.01187158,0.00215385,-0.00040527,0.00115873,0.02339373,0.00469844,0.
 01243592,-0.09245979,0.70393815,0.01917681,0.00509140,-0.00813173,0.00
 187100,0.00613745,-0.00570688,-0.07992211,-0.00212868,-0.07421526,-0.0
 1172337,-0.01860213,-0.00071872,0.00772796,0.00371524,-0.00712478,0.16
 991768,-0.06720175,0.25204545,0.00093266,0.00204811,-0.00115289,0.0004
 5916,0.00029824,-0.00049054,-0.01937522,-0.00003335,-0.00844464,0.0000
 4214,0.00022024,-0.00004278,-0.19210454,-0.00965337,-0.12518642,0.0007
 4971,0.00321601,-0.00096995,0.21467587,-0.00195343,0.00064060,0.002235
 86,0.00021579,-0.00107031,0.00066075,0.02416858,-0.00271450,0.01260555
 ,0.00004804,0.00019775,-0.00008193,-0.01018535,-0.04829260,-0.00698395
 ,0.00057639,-0.00437024,0.00040396,0.00568151,0.05234668,-0.00007800,0
 .00089927,-0.00093525,0.00004775,0.00046695,-0.00067326,0.00771808,0.0
 0087726,0.00786840,-0.00000260,-0.00004449,-0.00003781,-0.12695091,-0.
 00836971,-0.16161156,0.00089488,-0.00177707,0.00059531,0.13868439,0.01
 027242,0.17376009,-0.00330330,0.00538435,0.00101063,-0.00037933,-0.000
 02439,0.00008509,0.00969446,0.01889366,-0.00249871,0.00010184,-0.00031
 440,0.00016837,-0.10441886,-0.11189642,0.01488629,0.00137926,0.0012930
 0,-0.00052174,-0.01158785,-0.02293522,0.00351824,0.11373102,0.00435920
 ,-0.00182638,-0.00149714,0.00066247,0.00078745,-0.00017268,-0.01073793
 ,-0.02255620,0.00326724,-0.00016069,0.00062298,0.00003619,-0.10848535,
 -0.25775369,0.02720322,-0.00177597,-0.00212679,0.00035523,0.00027216,-
 0.00022296,0.00072367,0.11859595,0.28408445,0.00106390,-0.00111697,0.0
 0050762,0.00006110,-0.00002379,-0.00047263,-0.00270078,-0.00452865,-0.
 00069810,-0.00001708,-0.00011332,0.00006992,0.01441778,0.02724021,-0.0
 5041386,0.00027176,0.00088628,0.00111005,-0.01083386,-0.02120304,0.002
 04056,-0.01666324,-0.02898648,0.05234719,0.00306585,0.00118930,-0.0039
 0017,0.00041173,0.00086831,-0.00031416,-0.01607122,0.00546568,0.022931
 73,-0.00001007,0.00013905,0.00027085,-0.08072261,-0.00626236,0.0789783
 4,0.00487597,0.00087292,0.00484050,0.00918412,0.00158667,-0.02430528,-
 0.00524749,-0.00047954,0.01525888,0.08925290,-0.00188136,0.00398293,0.
 00180049,-0.00154164,-0.00045769,0.00081378,0.01711419,-0.00615581,-0.
 02454366,-0.00017757,0.00003152,-0.00004314,-0.00516920,-0.04944615,0.
 00894290,-0.00360480,-0.00002914,-0.00276259,0.00018739,0.00006456,-0.
 00243728,-0.01002728,-0.00064945,0.02892789,-0.00008558,0.05150156,-0.
 00218408,-0.00198807,0.00194591,0.00041352,-0.00145451,-0.00054517,0.0
 0770900,-0.00410554,-0.00134340,-0.00005740,-0.00016642,-0.00026485,0.
 07645184,0.01386002,-0.25559659,-0.00365890,-0.00030557,-0.00070877,0.
 00865807,0.00272330,-0.02209634,0.00054869,-0.00072713,-0.00416827,-0.
 09158943,-0.01017996,0.28186499,-0.00709080,-0.00443442,0.00831999,-0.
 00101244,0.00082701,0.00012534,-0.03234533,0.03375848,-0.03499543,0.00
 391395,0.00746276,0.00188727,-0.00170040,-0.00346428,-0.00244362,-0.23
 311412,0.19039061,-0.06797347,-0.00155559,0.00147078,0.00060708,0.0000
 8181,0.00029493,0.00000797,-0.00124755,0.00061813,0.00124123,0.2464073
 2,-0.00242174,0.01509655,-0.01780951,-0.00167303,0.00291980,-0.0046634
 5,0.02794528,-0.00524293,0.03954337,0.00403382,0.00295700,0.00063208,-
 0.00179198,0.00332847,-0.00292933,0.18281518,-0.39152437,0.08294797,0.
 00039032,0.00012793,-0.00002829,-0.00069940,0.00066554,-0.00016380,0.0
 0154784,-0.00130711,-0.00133101,-0.23184864,0.47145539,-0.00297360,-0.
 00358582,0.00387371,-0.00062322,0.00025085,0.00036328,-0.02499456,0.01
 876047,0.00507015,0.00252267,0.00156216,-0.00428057,-0.00162485,-0.003
 71826,0.00363974,-0.06585909,0.09013268,-0.10074933,-0.00021912,0.0000
 9880,0.00005712,0.00038130,-0.00030082,-0.00018958,-0.00185879,0.00137
 761,0.00041329,0.09156479,-0.11483220,0.07553866,-0.22747363,0.1394037
 9,-0.08445771,-0.01030339,0.01791707,-0.01692890,0.00153008,-0.0066325
 2,-0.00502301,-0.00029450,-0.00072202,0.00007994,-0.00238268,-0.002255
 56,0.00151501,0.01124396,-0.01616586,0.00447459,-0.00013869,0.00005177
 ,0.00007586,0.00074365,-0.00078896,-0.00025941,-0.00008770,0.00058565,
 0.00002313,-0.00225883,0.01226156,-0.00139655,0.22114232,0.14365875,-0
 .17259910,0.09930336,-0.00876185,0.00549959,-0.00315312,0.01560918,-0.
 02235331,0.01045243,-0.00004099,-0.00000319,-0.00010141,-0.00341666,-0
 .00351842,0.00307381,0.00343138,-0.00851389,0.00265682,0.00004946,-0.0
 0000690,0.00013753,0.00117942,-0.00084986,-0.00026829,-0.00004719,0.00
 035930,-0.00005217,0.00264438,0.00505799,-0.00122995,-0.15311483,0.195
 34632,-0.11385520,0.11435288,-0.11429662,0.01406092,-0.01301620,0.0071
 7828,0.01377913,0.00230566,0.00272114,-0.00006595,-0.00018204,-0.00012
 896,-0.00079754,-0.00367393,-0.00183727,-0.00258338,-0.00032071,0.0057
 9864,-0.00073032,0.00024741,-0.00030556,0.00046404,-0.00082401,-0.0000
 9066,-0.00005966,-0.00002926,0.00000600,0.00189177,-0.00008762,-0.0048
 7422,0.10418812,-0.10851729,0.10687294,-0.00746117,-0.00647120,0.00068
 068,0.00029675,-0.00141031,0.00014425,-0.02160183,-0.03997378,-0.01530
 750,-0.40834109,0.07664179,-0.12655926,0.00032141,-0.00080341,0.000629
 94,-0.14650536,-0.08446004,-0.02564369,-0.00034843,-0.00047305,0.00005
 486,-0.00170725,-0.00065400,-0.00005771,-0.00058501,0.00026394,0.00097
 978,0.02793108,0.01807730,0.00133996,-0.00118046,0.00102092,0.00062725
 ,0.55739080,-0.00402295,-0.00208248,0.00433366,-0.00004455,-0.00016013
 ,0.00146798,-0.01929356,-0.01291544,-0.01885163,0.02216255,-0.04817716
 ,0.00838760,0.00225598,-0.00248768,0.00281435,-0.02843223,-0.19460665,
 0.00123385,0.00000378,0.00038048,0.00017433,-0.00077826,0.00146926,-0.
 00045307,-0.00183707,0.00098332,0.00131169,-0.01038059,-0.08182163,0.0
 0619043,0.00371330,0.00154556,0.00124507,0.03312092,0.32992367,-0.0041
 1410,-0.00043090,0.00251592,0.00017649,-0.00152266,0.00021961,-0.01169
 984,-0.01337144,0.00411622,-0.12346100,0.02520237,-0.05051059,-0.00060
 200,-0.00008249,-0.00013048,-0.02458877,-0.01763309,-0.06087334,-0.000
 04416,0.00016058,0.00014925,-0.00025837,-0.00029500,-0.00069814,-0.000
 99963,-0.00015745,0.00033312,0.00312758,0.01430683,0.02152733,-0.00125
 542,0.00026183,-0.00021290,0.16254796,-0.00762109,0.08295742,-0.032648
 00,0.02292812,-0.01947750,0.00143634,0.00052940,0.01355094,0.00483724,
 0.03830549,0.02218997,-0.00079676,-0.00038903,0.00014797,-0.00307498,-
 0.00293380,0.01194250,-0.01853123,-0.00023705,-0.02125421,-0.00093333,
 0.00174751,-0.00026436,0.00091205,-0.00110227,-0.00054931,-0.00281893,
 0.00371814,0.00146455,0.00199090,-0.00863651,0.00374104,0.00945989,-0.
 00221197,-0.01691917,0.00179056,0.00353269,0.00117127,0.03837625,0.036
 25952,0.03295981,-0.06031596,-0.00336293,-0.00238017,-0.01088765,0.048
 70244,0.04728819,0.04203078,-0.00117778,-0.00112576,-0.00104419,0.0004
 8925,-0.01106296,-0.00752207,-0.04487865,0.00608392,-0.01184679,-0.002
 68049,0.00291951,-0.00089460,0.00132900,-0.00164435,-0.00019696,-0.002
 95804,0.00112216,0.00241536,0.01266086,-0.02171263,0.00529403,0.005746
 63,0.00003592,0.00850005,0.00512093,0.00794888,0.00118253,-0.05525074,
 -0.06043253,0.02291487,0.04945498,-0.10706223,-0.00197360,-0.00195938,
 0.00664741,-0.03535554,-0.08571437,-0.08527811,0.00012810,0.00048386,0
 .00053645,0.00290994,0.00483060,-0.00060717,0.01055416,-0.00036803,-0.
 00132063,0.00077221,-0.00113972,0.00118905,-0.00112060,0.00121770,0.00
 065592,0.00074681,-0.00170934,0.00016008,-0.00336050,0.00441496,-0.000
 38959,-0.00103565,-0.00256355,-0.00083082,0.00056348,-0.00023317,0.000
 60659,0.00425632,0.03328548,0.18569305\\-0.00000896,-0.00005958,0.0000
 0919,-0.00000296,-0.00000224,-0.00000797,0.00002149,0.00006759,0.00000
 781,-0.00000306,-0.00000107,0.00000715,-0.00000022,0.00000116,0.000000
 05,-0.00001053,0.00001194,0.00000498,0.00000106,-0.00000101,-0.0000057
 7,0.00000262,-0.00000098,-0.00000574,-0.00000083,0.00000350,-0.0000056
 4,0.00000335,-0.00000759,0.00000720,-0.00000539,0.00000512,0.00000871,
 0.00001208,0.00000298,-0.00001946,-0.00000866,-0.00001982,-0.00000051\
 \\@


 THE FIRST AND LAST THING REQUIRED OF GENIUS IS THE LOVE OF TRUTH.

                          -- GOETHE
 Job cpu time:       0 days  0 hours  1 minutes  4.3 seconds.
 File lengths (MBytes):  RWF=     12 Int=      0 D2E=      0 Chk=      2 Scr=      1
 Normal termination of Gaussian 09 at Wed Apr 13 10:23:29 2016.
