 Entering Link 1 = D:\Gaussian\G09W\l1.exe PID=      1552.
  
 Copyright (c) 1988,1990,1992,1993,1995,1998,2003,2009,2013,
            Gaussian, Inc.  All Rights Reserved.
  
 This is part of the Gaussian(R) 09 program.  It is based on
 the Gaussian(R) 03 system (copyright 2003, Gaussian, Inc.),
 the Gaussian(R) 98 system (copyright 1998, Gaussian, Inc.),
 the Gaussian(R) 94 system (copyright 1995, Gaussian, Inc.),
 the Gaussian 92(TM) system (copyright 1992, Gaussian, Inc.),
 the Gaussian 90(TM) system (copyright 1990, Gaussian, Inc.),
 the Gaussian 88(TM) system (copyright 1988, Gaussian, Inc.),
 the Gaussian 86(TM) system (copyright 1986, Carnegie Mellon
 University), and the Gaussian 82(TM) system (copyright 1983,
 Carnegie Mellon University). Gaussian is a federally registered
 trademark of Gaussian, Inc.
  
 This software contains proprietary and confidential information,
 including trade secrets, belonging to Gaussian, Inc.
  
 This software is provided under written license and may be
 used, copied, transmitted, or stored only in accord with that
 written license.
  
 The following legend is applicable only to US Government
 contracts under FAR:
  
                    RESTRICTED RIGHTS LEGEND
  
 Use, reproduction and disclosure by the US Government is
 subject to restrictions as set forth in subparagraphs (a)
 and (c) of the Commercial Computer Software - Restricted
 Rights clause in FAR 52.227-19.
  
 Gaussian, Inc.
 340 Quinnipiac St., Bldg. 40, Wallingford CT 06492
  
  
 ---------------------------------------------------------------
 Warning -- This program may not be used in any manner that
 competes with the business of Gaussian, Inc. or will provide
 assistance to any competitor of Gaussian, Inc.  The licensee
 of this program is prohibited from giving any competitor of
 Gaussian, Inc. access to this program.  By using this program,
 the user acknowledges that Gaussian, Inc. is engaged in the
 business of creating and licensing software in the field of
 computational chemistry and represents and warrants to the
 licensee that it is not a competitor of Gaussian, Inc. and that
 it will not use this program in any manner prohibited above.
 ---------------------------------------------------------------
  

 Cite this work as:
 Gaussian 09, Revision D.01,
 M. J. Frisch, G. W. Trucks, H. B. Schlegel, G. E. Scuseria, 
 M. A. Robb, J. R. Cheeseman, G. Scalmani, V. Barone, B. Mennucci, 
 G. A. Petersson, H. Nakatsuji, M. Caricato, X. Li, H. P. Hratchian, 
 A. F. Izmaylov, J. Bloino, G. Zheng, J. L. Sonnenberg, M. Hada, 
 M. Ehara, K. Toyota, R. Fukuda, J. Hasegawa, M. Ishida, T. Nakajima, 
 Y. Honda, O. Kitao, H. Nakai, T. Vreven, J. A. Montgomery, Jr., 
 J. E. Peralta, F. Ogliaro, M. Bearpark, J. J. Heyd, E. Brothers, 
 K. N. Kudin, V. N. Staroverov, T. Keith, R. Kobayashi, J. Normand, 
 K. Raghavachari, A. Rendell, J. C. Burant, S. S. Iyengar, J. Tomasi, 
 M. Cossi, N. Rega, J. M. Millam, M. Klene, J. E. Knox, J. B. Cross, 
 V. Bakken, C. Adamo, J. Jaramillo, R. Gomperts, R. E. Stratmann, 
 O. Yazyev, A. J. Austin, R. Cammi, C. Pomelli, J. W. Ochterski, 
 R. L. Martin, K. Morokuma, V. G. Zakrzewski, G. A. Voth, 
 P. Salvador, J. J. Dannenberg, S. Dapprich, A. D. Daniels, 
 O. Farkas, J. B. Foresman, J. V. Ortiz, J. Cioslowski, 
 and D. J. Fox, Gaussian, Inc., Wallingford CT, 2013.
 
 ******************************************
 Gaussian 09:  IA32W-G09RevD.01 24-Apr-2013
                27-Mar-2016 
 ******************************************
 %chk=D:\file\file\Ala-S-opt-6-31g.chk
 -----------------
 # opt b3lyp/6-31g
 -----------------
 1/14=-1,18=20,19=15,26=3,38=1/1,3;
 2/9=110,12=2,17=6,18=5,40=1/2;
 3/5=1,6=6,11=2,16=1,25=1,30=1,71=1,74=-5/1,2,3;
 4//1;
 5/5=2,38=5/2;
 6/7=2,8=2,9=2,10=2,28=1/1;
 7//1,2,3,16;
 1/14=-1,18=20,19=15,26=3/3(2);
 2/9=110/2;
 99//99;
 2/9=110/2;
 3/5=1,6=6,11=2,16=1,25=1,30=1,71=1,74=-5/1,2,3;
 4/5=5,16=3,69=1/1;
 5/5=2,38=5/2;
 7//1,2,3,16;
 1/14=-1,18=20,19=15,26=3/3(-5);
 2/9=110/2;
 6/7=2,8=2,9=2,10=2,19=2,28=1/1;
 99/9=1/99;
 ---------------
 Ala-S-opt-6-31g
 ---------------
 Symbolic Z-matrix:
 Charge =  0 Multiplicity = 1
 N                    -1.63092   0.03985   0. 
 H                    -0.63136   0.01018   0. 
 C                    -2.31788   1.31566   0. 
 H                    -2.94271   1.39246  -0.88982 
 C                    -3.2045    1.46178   1.23214 
 C                    -1.3274    2.47127   0. 
 H                    -2.59173   1.39614   2.1312 
 H                    -3.70766   2.42834   1.20578 
 H                    -3.94874   0.66546   1.24137 
 O                    -0.09047   2.23979   0. 
 H                    -2.1564   -0.81096   0. 
 O                    -1.80239   3.82008   0. 
 H                    -1.33145   4.32567  -0.66648 
 

 GradGradGradGradGradGradGradGradGradGradGradGradGradGradGradGradGradGrad
 Berny optimization.
 Initialization pass.
                           ----------------------------
                           !    Initial Parameters    !
                           ! (Angstroms and Degrees)  !
 --------------------------                            --------------------------
 ! Name  Definition              Value          Derivative Info.                !
 --------------------------------------------------------------------------------
 ! R1    R(1,2)                  1.0            estimate D2E/DX2                !
 ! R2    R(1,3)                  1.449          estimate D2E/DX2                !
 ! R3    R(1,11)                 1.0            estimate D2E/DX2                !
 ! R4    R(3,4)                  1.09           estimate D2E/DX2                !
 ! R5    R(3,5)                  1.525          estimate D2E/DX2                !
 ! R6    R(3,6)                  1.522          estimate D2E/DX2                !
 ! R7    R(5,7)                  1.09           estimate D2E/DX2                !
 ! R8    R(5,8)                  1.09           estimate D2E/DX2                !
 ! R9    R(5,9)                  1.09           estimate D2E/DX2                !
 ! R10   R(6,10)                 1.2584         estimate D2E/DX2                !
 ! R11   R(6,12)                 1.43           estimate D2E/DX2                !
 ! R12   R(12,13)                0.96           estimate D2E/DX2                !
 ! A1    A(2,1,3)              120.0            estimate D2E/DX2                !
 ! A2    A(2,1,11)             120.0            estimate D2E/DX2                !
 ! A3    A(3,1,11)             120.0            estimate D2E/DX2                !
 ! A4    A(1,3,4)              109.5            estimate D2E/DX2                !
 ! A5    A(1,3,5)              111.1            estimate D2E/DX2                !
 ! A6    A(1,3,6)              111.1            estimate D2E/DX2                !
 ! A7    A(4,3,5)              108.6358         estimate D2E/DX2                !
 ! A8    A(4,3,6)              108.6358         estimate D2E/DX2                !
 ! A9    A(5,3,6)              107.7945         estimate D2E/DX2                !
 ! A10   A(3,5,7)              109.5            estimate D2E/DX2                !
 ! A11   A(3,5,8)              109.5            estimate D2E/DX2                !
 ! A12   A(3,5,9)              109.5            estimate D2E/DX2                !
 ! A13   A(7,5,8)              109.4424         estimate D2E/DX2                !
 ! A14   A(7,5,9)              109.4424         estimate D2E/DX2                !
 ! A15   A(8,5,9)              109.4424         estimate D2E/DX2                !
 ! A16   A(3,6,10)             120.0            estimate D2E/DX2                !
 ! A17   A(3,6,12)             120.0            estimate D2E/DX2                !
 ! A18   A(10,6,12)            120.0            estimate D2E/DX2                !
 ! A19   A(6,12,13)            109.5            estimate D2E/DX2                !
 ! D1    D(2,1,3,4)            120.0            estimate D2E/DX2                !
 ! D2    D(2,1,3,5)           -120.0            estimate D2E/DX2                !
 ! D3    D(2,1,3,6)              0.0            estimate D2E/DX2                !
 ! D4    D(11,1,3,4)           -60.0            estimate D2E/DX2                !
 ! D5    D(11,1,3,5)            60.0            estimate D2E/DX2                !
 ! D6    D(11,1,3,6)           180.0            estimate D2E/DX2                !
 ! D7    D(1,3,5,7)             60.0            estimate D2E/DX2                !
 ! D8    D(1,3,5,8)            180.0            estimate D2E/DX2                !
 ! D9    D(1,3,5,9)            -60.0            estimate D2E/DX2                !
 ! D10   D(4,3,5,7)           -179.4879         estimate D2E/DX2                !
 ! D11   D(4,3,5,8)            -59.4879         estimate D2E/DX2                !
 ! D12   D(4,3,5,9)             60.5121         estimate D2E/DX2                !
 ! D13   D(6,3,5,7)            -61.9448         estimate D2E/DX2                !
 ! D14   D(6,3,5,8)             58.0551         estimate D2E/DX2                !
 ! D15   D(6,3,5,9)            178.0551         estimate D2E/DX2                !
 ! D16   D(1,3,6,10)             0.0            estimate D2E/DX2                !
 ! D17   D(1,3,6,12)           180.0            estimate D2E/DX2                !
 ! D18   D(4,3,6,10)          -120.5121         estimate D2E/DX2                !
 ! D19   D(4,3,6,12)            59.4879         estimate D2E/DX2                !
 ! D20   D(5,3,6,10)           121.9449         estimate D2E/DX2                !
 ! D21   D(5,3,6,12)           -58.0551         estimate D2E/DX2                !
 ! D22   D(3,6,12,13)         -132.5664         estimate D2E/DX2                !
 ! D23   D(10,6,12,13)          47.4336         estimate D2E/DX2                !
 --------------------------------------------------------------------------------
 Trust Radius=3.00D-01 FncErr=1.00D-07 GrdErr=1.00D-06
 Number of steps in this run=     64 maximum allowed number of steps=    100.
 GradGradGradGradGradGradGradGradGradGradGradGradGradGradGradGradGradGrad

                          Input orientation:                          
 ---------------------------------------------------------------------
 Center     Atomic      Atomic             Coordinates (Angstroms)
 Number     Number       Type             X           Y           Z
 ---------------------------------------------------------------------
      1          7           0       -1.630925    0.039849    0.000000
      2          1           0       -0.631365    0.010183    0.000000
      3          6           0       -2.317879    1.315661    0.000000
      4          1           0       -2.942712    1.392464   -0.889823
      5          6           0       -3.204502    1.461783    1.232141
      6          6           0       -1.327400    2.471272    0.000000
      7          1           0       -2.591729    1.396135    2.131196
      8          1           0       -3.707658    2.428344    1.205784
      9          1           0       -3.948737    0.665461    1.241373
     10          8           0       -0.090474    2.239788    0.000000
     11          1           0       -2.156396   -0.810962    0.000000
     12          8           0       -1.802390    3.820081    0.000000
     13          1           0       -1.331449    4.325669   -0.666480
 ---------------------------------------------------------------------
                    Distance matrix (angstroms):
                    1          2          3          4          5
     1  N    0.000000
     2  H    1.000000   0.000000
     3  C    1.449000   2.132745   0.000000
     4  H    2.083780   2.836338   1.090000   0.000000
     5  C    2.452797   3.200992   1.524999   2.139175   0.000000
     6  C    2.450295   2.557621   1.522000   2.136550   2.461859
     7  H    2.702712   3.210278   2.150225   3.041342   1.090000
     8  H    3.386981   4.094508   2.150224   2.459626   1.090000
     9  H    2.702712   3.602132   2.150224   2.466296   1.090000
    10  O    2.685650   2.294275   2.411502   3.105640   3.438114
    11  H    1.000000   1.732051   2.132745   2.503031   2.789636
    12  O    3.784118   3.985802   2.556921   2.825852   3.007600
    13  H    4.347659   4.422413   3.236879   3.354063   3.913429
                    6          7          8          9         10
     6  C    0.000000
     7  H    2.701193   0.000000
     8  H    2.668593   1.779646   0.000000
     9  H    3.416631   1.779646   1.779647   0.000000
    10  O    1.258400   3.392642   3.817524   4.348069   0.000000
    11  H    3.385306   3.098837   3.788592   2.633119   3.684441
    12  O    1.430000   3.322734   2.649697   4.012410   2.329803
    13  H    1.970533   4.242342   3.570936   4.887455   2.516966
                   11         12         13
    11  H    0.000000
    12  O    4.644553   0.000000
    13  H    5.244970   0.960000   0.000000
 Stoichiometry    C3H7NO2
 Framework group  C1[X(C3H7NO2)]
 Deg. of freedom    33
 Full point group                 C1      NOp   1
 Largest Abelian subgroup         C1      NOp   1
 Largest concise Abelian subgroup C1      NOp   1
                         Standard orientation:                         
 ---------------------------------------------------------------------
 Center     Atomic      Atomic             Coordinates (Angstroms)
 Number     Number       Type             X           Y           Z
 ---------------------------------------------------------------------
      1          7           0       -1.558688   -0.972737   -0.179952
      2          1           0       -1.192247   -1.826970    0.188840
      3          6           0       -0.676777    0.153118   -0.412942
      4          1           0       -0.699938    0.420941   -1.469273
      5          6           0       -1.105881    1.365432    0.406684
      6          6           0        0.756493   -0.184795   -0.028184
      7          1           0       -1.078981    1.115571    1.467319
      8          1           0       -0.426401    2.195211    0.212066
      9          1           0       -2.119400    1.653254    0.127332
     10          8           0        1.034055   -1.325472    0.425010
     11          1           0       -2.533762   -0.895492   -0.387951
     12          8           0        1.787713    0.793941   -0.181676
     13          1           0        2.544386    0.396363   -0.618686
 ---------------------------------------------------------------------
 Rotational constants (GHZ):      5.0221552      3.1076951      2.1272889
 Standard basis: 6-31G (6D, 7F)
 There are    68 symmetry adapted cartesian basis functions of A   symmetry.
 There are    68 symmetry adapted basis functions of A   symmetry.
    68 basis functions,   160 primitive gaussians,    68 cartesian basis functions
    24 alpha electrons       24 beta electrons
       nuclear repulsion energy       245.8656562223 Hartrees.
 NAtoms=   13 NActive=   13 NUniq=   13 SFac= 1.00D+00 NAtFMM=   60 NAOKFM=F Big=F
 Integral buffers will be    262144 words long.
 Raffenetti 2 integral format.
 Two-electron integral symmetry is turned on.
 One-electron integrals computed using PRISM.
 NBasis=    68 RedAO= T EigKep=  4.41D-03  NBF=    68
 NBsUse=    68 1.00D-06 EigRej= -1.00D+00 NBFU=    68
 ExpMin= 1.61D-01 ExpMax= 5.48D+03 ExpMxC= 8.25D+02 IAcc=1 IRadAn=         1 AccDes= 0.00D+00
 Harris functional with IExCor=  402 and IRadAn=       1 diagonalized for initial guess.
 HarFok:  IExCor=  402 AccDes= 0.00D+00 IRadAn=         1 IDoV= 1 UseB2=F ITyADJ=14
 ICtDFT=  3500011 ScaDFX=  1.000000  1.000000  1.000000  1.000000
 FoFCou: FMM=F IPFlag=           0 FMFlag=      100000 FMFlg1=           0
         NFxFlg=           0 DoJE=T BraDBF=F KetDBF=T FulRan=T
         wScrn=  0.000000 ICntrl=     500 IOpCl=  0 I1Cent=   200000004 NGrid=           0
         NMat0=    1 NMatS0=      1 NMatT0=    0 NMatD0=    1 NMtDS0=    0 NMtDT0=    0
 Petite list used in FoFCou.
 Keep R1 ints in memory in canonical form, NReq=3671903.
 Requested convergence on RMS density matrix=1.00D-08 within 128 cycles.
 Requested convergence on MAX density matrix=1.00D-06.
 Requested convergence on             energy=1.00D-06.
 No special actions if energy rises.
 Integral accuracy reduced to 1.0D-05 until final iterations.
 Initial convergence to 1.0D-05 achieved.  Increase integral accuracy.
 SCF Done:  E(RB3LYP) =  -323.613214818     A.U. after   15 cycles
            NFock= 15  Conv=0.66D-08     -V/T= 2.0058

 **********************************************************************

            Population analysis using the SCF density.

 **********************************************************************

 Orbital symmetries:
       Occupied  (A) (A) (A) (A) (A) (A) (A) (A) (A) (A) (A) (A)
                 (A) (A) (A) (A) (A) (A) (A) (A) (A) (A) (A) (A)
       Virtual   (A) (A) (A) (A) (A) (A) (A) (A) (A) (A) (A) (A)
                 (A) (A) (A) (A) (A) (A) (A) (A) (A) (A) (A) (A)
                 (A) (A) (A) (A) (A) (A) (A) (A) (A) (A) (A) (A)
                 (A) (A) (A) (A) (A) (A) (A) (A)
 The electronic state is 1-A.
 Alpha  occ. eigenvalues --  -19.19089 -19.15831 -14.29497 -10.34022 -10.23999
 Alpha  occ. eigenvalues --  -10.17433  -1.10041  -1.02448  -0.88492  -0.75838
 Alpha  occ. eigenvalues --   -0.66564  -0.60156  -0.53463  -0.48332  -0.47757
 Alpha  occ. eigenvalues --   -0.45959  -0.42362  -0.41341  -0.39403  -0.37107
 Alpha  occ. eigenvalues --   -0.35557  -0.32095  -0.28094  -0.21191
 Alpha virt. eigenvalues --   -0.03371   0.05677   0.09410   0.13418   0.14017
 Alpha virt. eigenvalues --    0.15736   0.17170   0.17868   0.20888   0.22562
 Alpha virt. eigenvalues --    0.24368   0.29953   0.36903   0.53271   0.55403
 Alpha virt. eigenvalues --    0.57945   0.59671   0.62363   0.64304   0.64417
 Alpha virt. eigenvalues --    0.70108   0.75587   0.78681   0.81563   0.82835
 Alpha virt. eigenvalues --    0.83349   0.90636   0.92405   0.93465   0.94586
 Alpha virt. eigenvalues --    0.97017   0.97930   0.99375   1.01108   1.05075
 Alpha virt. eigenvalues --    1.09750   1.15272   1.22249   1.26229   1.30682
 Alpha virt. eigenvalues --    1.42156   1.64254   1.76983   1.89585
          Condensed to atoms (all electrons):
               1          2          3          4          5          6
     1  N    7.019177   0.328298   0.261410  -0.061224  -0.094703  -0.037316
     2  H    0.328298   0.385452  -0.037661   0.003527   0.003814  -0.003634
     3  C    0.261410  -0.037661   5.232400   0.375474   0.295894   0.192732
     4  H   -0.061224   0.003527   0.375474   0.617773  -0.062395  -0.036561
     5  C   -0.094703   0.003814   0.295894  -0.062395   5.200320  -0.037238
     6  C   -0.037316  -0.003634   0.192732  -0.036561  -0.037238   4.795663
     7  H    0.004711   0.000528  -0.038093   0.006425   0.367651  -0.006022
     8  H    0.007078  -0.000160  -0.030606   0.003385   0.336274  -0.006053
     9  H   -0.003358  -0.000178  -0.032236  -0.006939   0.376223   0.004330
    10  O   -0.002272   0.020026  -0.118537   0.001575   0.000482   0.483103
    11  H    0.332274  -0.023816  -0.029743  -0.001314  -0.000862   0.004980
    12  O    0.001711   0.000397  -0.099878   0.002794   0.002671   0.165600
    13  H   -0.000110  -0.000021   0.006744  -0.000460  -0.000066  -0.013990
               7          8          9         10         11         12
     1  N    0.004711   0.007078  -0.003358  -0.002272   0.332274   0.001711
     2  H    0.000528  -0.000160  -0.000178   0.020026  -0.023816   0.000397
     3  C   -0.038093  -0.030606  -0.032236  -0.118537  -0.029743  -0.099878
     4  H    0.006425   0.003385  -0.006939   0.001575  -0.001314   0.002794
     5  C    0.367651   0.336274   0.376223   0.000482  -0.000862   0.002671
     6  C   -0.006022  -0.006053   0.004330   0.483103   0.004980   0.165600
     7  H    0.564305  -0.023321  -0.030392   0.001078  -0.000128  -0.000131
     8  H   -0.023321   0.582341  -0.028639   0.000160  -0.000056   0.005890
     9  H   -0.030392  -0.028639   0.582783  -0.000112   0.002418  -0.000076
    10  O    0.001078   0.000160  -0.000112   8.121128   0.000474  -0.100568
    11  H   -0.000128  -0.000056   0.002418   0.000474   0.420231  -0.000026
    12  O   -0.000131   0.005890  -0.000076  -0.100568  -0.000026   8.362844
    13  H   -0.000037  -0.000121   0.000004   0.001240   0.000002   0.235994
              13
     1  N   -0.000110
     2  H   -0.000021
     3  C    0.006744
     4  H   -0.000460
     5  C   -0.000066
     6  C   -0.013990
     7  H   -0.000037
     8  H   -0.000121
     9  H    0.000004
    10  O    0.001240
    11  H    0.000002
    12  O    0.235994
    13  H    0.378946
 Mulliken charges:
               1
     1  N   -0.755677
     2  H    0.323428
     3  C    0.022100
     4  H    0.157939
     5  C   -0.388067
     6  C    0.494407
     7  H    0.153428
     8  H    0.153827
     9  H    0.136172
    10  O   -0.407775
    11  H    0.295567
    12  O   -0.577223
    13  H    0.391875
 Sum of Mulliken charges =   0.00000
 Mulliken charges with hydrogens summed into heavy atoms:
               1
     1  N   -0.136683
     3  C    0.180039
     5  C    0.055361
     6  C    0.494407
    10  O   -0.407775
    12  O   -0.185348
 Electronic spatial extent (au):  <R**2>=            595.0883
 Charge=              0.0000 electrons
 Dipole moment (field-independent basis, Debye):
    X=             -0.7580    Y=              0.8854    Z=             -1.7913  Tot=              2.1371
 Quadrupole moment (field-independent basis, Debye-Ang):
   XX=            -29.4033   YY=            -39.9458   ZZ=            -35.9800
   XY=              1.0092   XZ=             -2.8839   YZ=              0.3660
 Traceless Quadrupole moment (field-independent basis, Debye-Ang):
   XX=              5.7064   YY=             -4.8361   ZZ=             -0.8703
   XY=              1.0092   XZ=             -2.8839   YZ=              0.3660
 Octapole moment (field-independent basis, Debye-Ang**2):
  XXX=             13.3868  YYY=             -5.2939  ZZZ=             -0.4138  XYY=             -7.2589
  XXY=             -2.6306  XXZ=            -11.7916  XZZ=              5.0395  YZZ=              0.5663
  YYZ=              0.0129  XYZ=              1.8703
 Hexadecapole moment (field-independent basis, Debye-Ang**3):
 XXXX=           -296.1531 YYYY=           -254.9167 ZZZZ=            -69.2409 XXXY=             17.7402
 XXXZ=            -13.3956 YYYX=             14.7314 YYYZ=             -4.2100 ZZZX=             -2.4526
 ZZZY=             -3.5503 XXYY=           -113.5550 XXZZ=            -75.4061 YYZZ=            -57.9427
 XXYZ=             -1.4791 YYXZ=             -3.9260 ZZXY=              0.6082
 N-N= 2.458656562223D+02 E-N=-1.249411110379D+03  KE= 3.217558637226D+02
 Calling FoFJK, ICntrl=      2127 FMM=F ISym2X=0 I1Cent= 0 IOpClX= 0 NMat=1 NMatS=1 NMatT=0.
 ***** Axes restored to original set *****
 -------------------------------------------------------------------
 Center     Atomic                   Forces (Hartrees/Bohr)
 Number     Number              X              Y              Z
 -------------------------------------------------------------------
      1        7           0.004463879    0.009493891   -0.002308611
      2        1           0.004120651    0.000975161   -0.000196337
      3        6           0.001717833   -0.000466790    0.008755359
      4        1          -0.004694066    0.007803170   -0.007198274
      5        6          -0.008584594    0.006029273    0.003470990
      6        6           0.048083869   -0.003145207   -0.007682830
      7        1          -0.000073311   -0.001273611    0.002736584
      8        1          -0.004580356    0.002127449    0.003186968
      9        1          -0.002497383   -0.001628867    0.002085305
     10        8          -0.031543147    0.012578890   -0.002721888
     11        1          -0.002311734   -0.001429748    0.000315271
     12        8          -0.020113012   -0.044568783    0.005648097
     13        1           0.016011370    0.013505171   -0.006090635
 -------------------------------------------------------------------
 Cartesian Forces:  Max     0.048083869 RMS     0.013374073

 GradGradGradGradGradGradGradGradGradGradGradGradGradGradGradGradGradGrad
 Berny optimization.
 FormGI is forming the generalized inverse of G from B-inverse, IUseBI=4.
 Internal  Forces:  Max     0.033318778 RMS     0.009457937
 Search for a local minimum.
 Step number   1 out of a maximum of   64
 All quantities printed in internal units (Hartrees-Bohrs-Radians)
 Mixed Optimization -- RFO/linear search
 Second derivative matrix not updated -- first step.
 ITU=  0
     Eigenvalues ---    0.00435   0.00475   0.00680   0.01044   0.01044
     Eigenvalues ---    0.01295   0.04822   0.05366   0.05844   0.05844
     Eigenvalues ---    0.06283   0.16000   0.16000   0.16000   0.16000
     Eigenvalues ---    0.16000   0.16000   0.16898   0.18432   0.25000
     Eigenvalues ---    0.25000   0.29890   0.30175   0.34813   0.34813
     Eigenvalues ---    0.34813   0.34813   0.38376   0.40989   0.47688
     Eigenvalues ---    0.47688   0.55473   0.80209
 RFO step:  Lambda=-1.87928658D-02 EMin= 4.35252188D-03
 Linear search not attempted -- first point.
 Iteration  1 RMS(Cart)=  0.05902399 RMS(Int)=  0.01674475
 Iteration  2 RMS(Cart)=  0.01970698 RMS(Int)=  0.00097428
 Iteration  3 RMS(Cart)=  0.00076011 RMS(Int)=  0.00056458
 Iteration  4 RMS(Cart)=  0.00000054 RMS(Int)=  0.00056458
 Variable       Old X    -DE/DX   Delta X   Delta X   Delta X     New X
                                 (Linear)    (Quad)   (Total)
    R1        1.88973   0.00409   0.00000   0.00825   0.00825   1.89797
    R2        2.73821  -0.00499   0.00000  -0.01239  -0.01239   2.72583
    R3        1.88973   0.00243   0.00000   0.00491   0.00491   1.89463
    R4        2.05980   0.00912   0.00000   0.02485   0.02485   2.08465
    R5        2.88183   0.01893   0.00000   0.05959   0.05959   2.94142
    R6        2.87616  -0.00833   0.00000  -0.02599  -0.02599   2.85018
    R7        2.05980   0.00230   0.00000   0.00626   0.00626   2.06606
    R8        2.05980   0.00392   0.00000   0.01069   0.01069   2.07049
    R9        2.05980   0.00291   0.00000   0.00793   0.00793   2.06773
   R10        2.37803  -0.03332   0.00000  -0.04059  -0.04059   2.33744
   R11        2.70231  -0.02794   0.00000  -0.06517  -0.06517   2.63714
   R12        1.81414   0.01920   0.00000   0.03347   0.03347   1.84761
    A1        2.09440  -0.00061   0.00000  -0.00343  -0.00343   2.09096
    A2        2.09440   0.00146   0.00000   0.00815   0.00815   2.10255
    A3        2.09440  -0.00084   0.00000  -0.00472  -0.00472   2.08967
    A4        1.91114   0.00425   0.00000   0.03366   0.03230   1.94344
    A5        1.93906   0.00591   0.00000   0.04348   0.04373   1.98279
    A6        1.93906  -0.01114   0.00000  -0.05849  -0.05932   1.87974
    A7        1.89605  -0.00478   0.00000  -0.01838  -0.01881   1.87725
    A8        1.89605  -0.00182   0.00000  -0.03898  -0.03877   1.85729
    A9        1.88137   0.00750   0.00000   0.03730   0.03815   1.91951
   A10        1.91114   0.00064   0.00000   0.00289   0.00274   1.91388
   A11        1.91114   0.00608   0.00000   0.03763   0.03737   1.94851
   A12        1.91114   0.00147   0.00000   0.00532   0.00522   1.91635
   A13        1.91013  -0.00237   0.00000  -0.00739  -0.00768   1.90245
   A14        1.91013  -0.00230   0.00000  -0.02013  -0.02011   1.89002
   A15        1.91013  -0.00354   0.00000  -0.01837  -0.01857   1.89156
   A16        2.09440   0.02209   0.00000   0.08217   0.08141   2.17581
   A17        2.09440  -0.02857   0.00000  -0.10630  -0.10700   1.98739
   A18        2.09440   0.00649   0.00000   0.02413   0.02346   2.11785
   A19        1.91114   0.00195   0.00000   0.01089   0.01089   1.92203
    D1        2.09440  -0.00247   0.00000  -0.03375  -0.03463   2.05976
    D2       -2.09439  -0.00192   0.00000  -0.00728  -0.00633  -2.10072
    D3        0.00000   0.00406   0.00000   0.02981   0.02974   0.02974
    D4       -1.04720  -0.00254   0.00000  -0.03588  -0.03677  -1.08396
    D5        1.04720  -0.00198   0.00000  -0.00941  -0.00846   1.03874
    D6        3.14159   0.00400   0.00000   0.02768   0.02761  -3.11398
    D7        1.04720  -0.00456   0.00000  -0.03622  -0.03570   1.01150
    D8        3.14159  -0.00334   0.00000  -0.02043  -0.01980   3.12179
    D9       -1.04720  -0.00304   0.00000  -0.01659  -0.01593  -1.06313
   D10       -3.13265   0.00127   0.00000   0.02046   0.02014  -3.11251
   D11       -1.03826   0.00249   0.00000   0.03626   0.03604  -1.00222
   D12        1.05614   0.00279   0.00000   0.04009   0.03991   1.09605
   D13       -1.08114   0.00065   0.00000  -0.01517  -0.01562  -1.09676
   D14        1.01325   0.00187   0.00000   0.00063   0.00028   1.01354
   D15        3.10765   0.00217   0.00000   0.00446   0.00415   3.11180
   D16        0.00000  -0.00349   0.00000  -0.05036  -0.04957  -0.04957
   D17        3.14159  -0.00172   0.00000   0.01857   0.01997  -3.12163
   D18       -2.10333  -0.00068   0.00000  -0.03063  -0.03191  -2.13524
   D19        1.03826   0.00109   0.00000   0.03830   0.03762   1.07588
   D20        2.12834   0.00185   0.00000  -0.00832  -0.00874   2.11960
   D21       -1.01325   0.00361   0.00000   0.06061   0.06080  -0.95246
   D22       -2.31372  -0.00969   0.00000  -0.31207  -0.31108  -2.62480
   D23        0.82787  -0.00793   0.00000  -0.24314  -0.24412   0.58375
         Item               Value     Threshold  Converged?
 Maximum Force            0.033319     0.000450     NO 
 RMS     Force            0.009458     0.000300     NO 
 Maximum Displacement     0.248361     0.001800     NO 
 RMS     Displacement     0.069099     0.001200     NO 
 Predicted change in Energy=-1.143088D-02
 GradGradGradGradGradGradGradGradGradGradGradGradGradGradGradGradGradGrad

                          Input orientation:                          
 ---------------------------------------------------------------------
 Center     Atomic      Atomic             Coordinates (Angstroms)
 Number     Number       Type             X           Y           Z
 ---------------------------------------------------------------------
      1          7           0       -1.599399    0.051785   -0.007302
      2          1           0       -0.595172    0.051993   -0.023862
      3          6           0       -2.316602    1.303280   -0.002115
      4          1           0       -2.949894    1.406984   -0.899403
      5          6           0       -3.231623    1.492137    1.242820
      6          6           0       -1.299457    2.415015   -0.067519
      7          1           0       -2.631247    1.425205    2.154082
      8          1           0       -3.744830    2.459986    1.224004
      9          1           0       -3.987396    0.701377    1.270680
     10          8           0       -0.073833    2.248235   -0.065575
     11          1           0       -2.107404   -0.812455    0.007516
     12          8           0       -1.858111    3.693613   -0.044082
     13          1           0       -1.288644    4.318574   -0.535053
 ---------------------------------------------------------------------
                    Distance matrix (angstroms):
                    1          2          3          4          5
     1  N    0.000000
     2  H    1.004364   0.000000
     3  C    1.442445   2.128266   0.000000
     4  H    2.110981   2.854345   1.103149   0.000000
     5  C    2.510293   3.260271   1.556532   2.162346   0.000000
     6  C    2.382949   2.466130   1.508249   2.105255   2.510369
     7  H    2.760901   3.282492   2.182442   3.070120   1.093311
     8  H    3.452306   4.156434   2.209337   2.499919   1.095659
     9  H    2.785271   3.688458   2.184913   2.506701   1.094198
    10  O    2.674910   2.257657   2.434539   3.110418   3.500745
    11  H    1.002597   1.742155   2.126075   2.541299   2.846224
    12  O    3.651191   3.854455   2.434269   2.674367   2.896403
    13  H    4.310519   4.352693   3.229971   3.371922   3.863255
                    6          7          8          9         10
     6  C    0.000000
     7  H    2.772887   0.000000
     8  H    2.765845   1.782101   0.000000
     9  H    3.457216   1.772982   1.775872   0.000000
    10  O    1.236921   3.484914   3.896674   4.415237   0.000000
    11  H    3.327909   3.144723   3.856148   2.724269   3.675402
    12  O    1.395513   3.251975   2.586423   3.900760   2.296350
    13  H    1.960163   4.172003   3.547038   4.860868   2.445910
                   11         12         13
    11  H    0.000000
    12  O    4.513254   0.000000
    13  H    5.224195   0.977712   0.000000
 Stoichiometry    C3H7NO2
 Framework group  C1[X(C3H7NO2)]
 Deg. of freedom    33
 Full point group                 C1      NOp   1
 Largest Abelian subgroup         C1      NOp   1
 Largest concise Abelian subgroup C1      NOp   1
                         Standard orientation:                         
 ---------------------------------------------------------------------
 Center     Atomic      Atomic             Coordinates (Angstroms)
 Number     Number       Type             X           Y           Z
 ---------------------------------------------------------------------
      1          7           0       -1.440513   -1.093311   -0.163494
      2          1           0       -0.985703   -1.908842    0.206376
      3          6           0       -0.676922    0.106725   -0.403261
      4          1           0       -0.683322    0.380023   -1.472001
      5          6           0       -1.184896    1.339589    0.399735
      6          6           0        0.759258   -0.184603   -0.046427
      7          1           0       -1.164279    1.115560    1.469648
      8          1           0       -0.570966    2.226848    0.209131
      9          1           0       -2.217026    1.566852    0.116311
     10          8           0        1.164631   -1.255497    0.421367
     11          1           0       -2.422414   -1.106554   -0.365724
     12          8           0        1.613792    0.906801   -0.207875
     13          1           0        2.515286    0.598590   -0.427495
 ---------------------------------------------------------------------
 Rotational constants (GHZ):      4.8692220      3.2757128      2.1690182
 Standard basis: 6-31G (6D, 7F)
 There are    68 symmetry adapted cartesian basis functions of A   symmetry.
 There are    68 symmetry adapted basis functions of A   symmetry.
    68 basis functions,   160 primitive gaussians,    68 cartesian basis functions
    24 alpha electrons       24 beta electrons
       nuclear repulsion energy       247.4518736062 Hartrees.
 NAtoms=   13 NActive=   13 NUniq=   13 SFac= 1.00D+00 NAtFMM=   60 NAOKFM=F Big=F
 Integral buffers will be    262144 words long.
 Raffenetti 2 integral format.
 Two-electron integral symmetry is turned on.
 One-electron integrals computed using PRISM.
 NBasis=    68 RedAO= T EigKep=  4.57D-03  NBF=    68
 NBsUse=    68 1.00D-06 EigRej= -1.00D+00 NBFU=    68
 Initial guess from the checkpoint file:  "D:\file\file\Ala-S-opt-6-31g.chk"
 B after Tr=     0.000000    0.000000    0.000000
         Rot=    0.999267    0.004499   -0.002191   -0.037954 Ang=   4.39 deg.
 ExpMin= 1.61D-01 ExpMax= 5.48D+03 ExpMxC= 8.25D+02 IAcc=1 IRadAn=         1 AccDes= 0.00D+00
 Harris functional with IExCor=  402 and IRadAn=       1 diagonalized for initial guess.
 HarFok:  IExCor=  402 AccDes= 0.00D+00 IRadAn=         1 IDoV= 1 UseB2=F ITyADJ=14
 ICtDFT=  3500011 ScaDFX=  1.000000  1.000000  1.000000  1.000000
 FoFCou: FMM=F IPFlag=           0 FMFlag=      100000 FMFlg1=           0
         NFxFlg=           0 DoJE=T BraDBF=F KetDBF=T FulRan=T
         wScrn=  0.000000 ICntrl=     500 IOpCl=  0 I1Cent=   200000004 NGrid=           0
         NMat0=    1 NMatS0=      1 NMatT0=    0 NMatD0=    1 NMtDS0=    0 NMtDT0=    0
 Petite list used in FoFCou.
 Keep R1 ints in memory in canonical form, NReq=3671903.
 Requested convergence on RMS density matrix=1.00D-08 within 128 cycles.
 Requested convergence on MAX density matrix=1.00D-06.
 Requested convergence on             energy=1.00D-06.
 No special actions if energy rises.
 Integral accuracy reduced to 1.0D-05 until final iterations.
 Initial convergence to 1.0D-05 achieved.  Increase integral accuracy.
 SCF Done:  E(RB3LYP) =  -323.625976389     A.U. after   14 cycles
            NFock= 14  Conv=0.43D-08     -V/T= 2.0057
 Calling FoFJK, ICntrl=      2127 FMM=F ISym2X=0 I1Cent= 0 IOpClX= 0 NMat=1 NMatS=1 NMatT=0.
 ***** Axes restored to original set *****
 -------------------------------------------------------------------
 Center     Atomic                   Forces (Hartrees/Bohr)
 Number     Number              X              Y              Z
 -------------------------------------------------------------------
      1        7          -0.004061439   -0.000083082    0.000579386
      2        1          -0.000148017    0.000561672    0.000346576
      3        6          -0.001058739   -0.001717284    0.004413310
      4        1          -0.001241345    0.002265848   -0.000744815
      5        6          -0.000107556    0.001674272   -0.000772283
      6        6           0.010109020    0.006932740    0.009159842
      7        1           0.000553284   -0.000480967    0.000493137
      8        1           0.000866381   -0.000850569   -0.001106774
      9        1           0.000223958   -0.001219872   -0.000694094
     10        8          -0.004735371    0.001616894   -0.006938780
     11        1           0.001008186   -0.000672399    0.000169404
     12        8          -0.007017847   -0.012548141   -0.012259659
     13        1           0.005609486    0.004520887    0.007354750
 -------------------------------------------------------------------
 Cartesian Forces:  Max     0.012548141 RMS     0.004609982

 GradGradGradGradGradGradGradGradGradGradGradGradGradGradGradGradGradGrad
 Berny optimization.
 Using GEDIIS/GDIIS optimizer.
 FormGI is forming the generalized inverse of G from B-inverse, IUseBI=4.
 Internal  Forces:  Max     0.009798352 RMS     0.002687449
 Search for a local minimum.
 Step number   2 out of a maximum of   64
 All quantities printed in internal units (Hartrees-Bohrs-Radians)
 Mixed Optimization -- RFO/linear search
 Update second derivatives using D2CorX and points    1    2
 DE= -1.28D-02 DEPred=-1.14D-02 R= 1.12D+00
 TightC=F SS=  1.41D+00  RLast= 4.67D-01 DXNew= 5.0454D-01 1.4020D+00
 Trust test= 1.12D+00 RLast= 4.67D-01 DXMaxT set to 5.05D-01
 ITU=  1  0
 Use linear search instead of GDIIS.
     Eigenvalues ---    0.00435   0.00475   0.00683   0.01034   0.01044
     Eigenvalues ---    0.01064   0.04548   0.05222   0.05564   0.05810
     Eigenvalues ---    0.06756   0.15850   0.16000   0.16000   0.16000
     Eigenvalues ---    0.16000   0.16185   0.17924   0.19065   0.22930
     Eigenvalues ---    0.25013   0.30059   0.32400   0.34704   0.34813
     Eigenvalues ---    0.34813   0.35156   0.38305   0.39958   0.47688
     Eigenvalues ---    0.47747   0.55450   0.79557
 RFO step:  Lambda=-8.42882119D-03 EMin= 4.35198765D-03
 Quartic linear search produced a step of  0.40033.
 Iteration  1 RMS(Cart)=  0.04162580 RMS(Int)=  0.05671102
 Iteration  2 RMS(Cart)=  0.03292461 RMS(Int)=  0.01794318
 Iteration  3 RMS(Cart)=  0.01619914 RMS(Int)=  0.00195415
 Iteration  4 RMS(Cart)=  0.00078740 RMS(Int)=  0.00179134
 Iteration  5 RMS(Cart)=  0.00000121 RMS(Int)=  0.00179134
 Iteration  6 RMS(Cart)=  0.00000000 RMS(Int)=  0.00179134
 Variable       Old X    -DE/DX   Delta X   Delta X   Delta X     New X
                                 (Linear)    (Quad)   (Total)
    R1        1.89797  -0.00015   0.00330  -0.00076   0.00254   1.90051
    R2        2.72583  -0.00143  -0.00496  -0.00405  -0.00901   2.71681
    R3        1.89463   0.00007   0.00196  -0.00003   0.00193   1.89657
    R4        2.08465   0.00153   0.00995   0.00422   0.01417   2.09882
    R5        2.94142  -0.00267   0.02386  -0.01448   0.00938   2.95080
    R6        2.85018   0.00317  -0.01040   0.01456   0.00415   2.85433
    R7        2.06606   0.00074   0.00250   0.00235   0.00486   2.07092
    R8        2.07049  -0.00114   0.00428  -0.00464  -0.00036   2.07013
    R9        2.06773   0.00071   0.00318   0.00214   0.00532   2.07305
   R10        2.33744  -0.00492  -0.01625  -0.00633  -0.02257   2.31487
   R11        2.63714  -0.00687  -0.02609  -0.01795  -0.04404   2.59309
   R12        1.84761   0.00246   0.01340   0.00422   0.01762   1.86523
    A1        2.09096  -0.00147  -0.00137  -0.01095  -0.01238   2.07859
    A2        2.10255  -0.00041   0.00326  -0.00380  -0.00059   2.10196
    A3        2.08967   0.00188  -0.00189   0.01471   0.01276   2.10244
    A4        1.94344   0.00111   0.01293   0.00927   0.02169   1.96512
    A5        1.98279  -0.00201   0.01751  -0.01418   0.00332   1.98611
    A6        1.87974   0.00191  -0.02375   0.02398  -0.00020   1.87955
    A7        1.87725  -0.00011  -0.00753  -0.01153  -0.01916   1.85809
    A8        1.85729  -0.00143  -0.01552  -0.00989  -0.02522   1.83207
    A9        1.91951   0.00054   0.01527   0.00244   0.01801   1.93752
   A10        1.91388   0.00018   0.00110   0.00195   0.00297   1.91685
   A11        1.94851  -0.00127   0.01496  -0.01251   0.00234   1.95085
   A12        1.91635  -0.00146   0.00209  -0.01263  -0.01059   1.90576
   A13        1.90245   0.00089  -0.00307   0.00958   0.00636   1.90881
   A14        1.89002   0.00045  -0.00805   0.00459  -0.00347   1.88655
   A15        1.89156   0.00129  -0.00743   0.00972   0.00221   1.89377
   A16        2.17581   0.00505   0.03259   0.02462   0.04967   2.22548
   A17        1.98739  -0.00770  -0.04284  -0.02674  -0.07695   1.91044
   A18        2.11785   0.00279   0.00939   0.01727   0.01936   2.13722
   A19        1.92203   0.00231   0.00436   0.01669   0.02105   1.94308
    D1        2.05976   0.00046  -0.01387   0.02360   0.00934   2.06911
    D2       -2.10072  -0.00031  -0.00253   0.00515   0.00302  -2.09770
    D3        0.02974   0.00043   0.01191   0.01619   0.02807   0.05781
    D4       -1.08396   0.00016  -0.01472   0.00503  -0.01008  -1.09404
    D5        1.03874  -0.00061  -0.00339  -0.01342  -0.01640   1.02234
    D6       -3.11398   0.00014   0.01105  -0.00238   0.00865  -3.10533
    D7        1.01150   0.00035  -0.01429   0.01298  -0.00106   1.01044
    D8        3.12179   0.00076  -0.00793   0.01818   0.01056   3.13235
    D9       -1.06313   0.00058  -0.00638   0.01384   0.00777  -1.05536
   D10       -3.11251   0.00034   0.00806   0.00685   0.01477  -3.09774
   D11       -1.00222   0.00075   0.01443   0.01205   0.02639  -0.97583
   D12        1.09605   0.00057   0.01598   0.00771   0.02360   1.11965
   D13       -1.09676  -0.00113  -0.00625  -0.00998  -0.01646  -1.11322
   D14        1.01354  -0.00072   0.00011  -0.00478  -0.00485   1.00869
   D15        3.11180  -0.00090   0.00166  -0.00912  -0.00763   3.10417
   D16       -0.04957   0.00202  -0.01984   0.12888   0.10969   0.06012
   D17       -3.12163  -0.00034   0.00799  -0.11850  -0.11029   3.05127
   D18       -2.13524   0.00049  -0.01278   0.11084   0.09785  -2.03739
   D19        1.07588  -0.00187   0.01506  -0.13654  -0.12213   0.95375
   D20        2.11960   0.00112  -0.00350   0.12863   0.12535   2.24496
   D21       -0.95246  -0.00124   0.02434  -0.11875  -0.09463  -1.04708
   D22       -2.62480  -0.00740  -0.12453  -0.26045  -0.38674  -3.01154
   D23        0.58375  -0.00980  -0.09773  -0.49908  -0.59506  -0.01131
         Item               Value     Threshold  Converged?
 Maximum Force            0.009798     0.000450     NO 
 RMS     Force            0.002687     0.000300     NO 
 Maximum Displacement     0.328851     0.001800     NO 
 RMS     Displacement     0.073664     0.001200     NO 
 Predicted change in Energy=-8.298233D-03
 GradGradGradGradGradGradGradGradGradGradGradGradGradGradGradGradGradGrad

                          Input orientation:                          
 ---------------------------------------------------------------------
 Center     Atomic      Atomic             Coordinates (Angstroms)
 Number     Number       Type             X           Y           Z
 ---------------------------------------------------------------------
      1          7           0       -1.601573    0.047190    0.008251
      2          1           0       -0.595869    0.049207    0.007320
      3          6           0       -2.303158    1.302051    0.011358
      4          1           0       -2.939991    1.437089   -0.888502
      5          6           0       -3.236567    1.498932    1.247582
      6          6           0       -1.273272    2.403898   -0.070592
      7          1           0       -2.651725    1.421074    2.171084
      8          1           0       -3.746795    2.467964    1.221317
      9          1           0       -3.994900    0.706288    1.256758
     10          8           0       -0.059924    2.283538   -0.188336
     11          1           0       -2.108190   -0.819002    0.025671
     12          8           0       -1.907801    3.615031   -0.186686
     13          1           0       -1.263845    4.342469   -0.361033
 ---------------------------------------------------------------------
                    Distance matrix (angstroms):
                    1          2          3          4          5
     1  N    0.000000
     2  H    1.005707   0.000000
     3  C    1.437675   2.117657   0.000000
     4  H    2.127756   2.867685   1.110648   0.000000
     5  C    2.513305   3.257797   1.561494   2.157460   0.000000
     6  C    2.380772   2.451431   1.510446   2.093238   2.532010
     7  H    2.769156   3.284880   2.190908   3.073177   1.095882
     8  H    3.454513   4.153614   2.215275   2.482937   1.095466
     9  H    2.778704   3.680525   2.183562   2.499808   1.097013
    10  O    2.723341   2.306025   2.456684   3.082449   3.573308
    11  H    1.003620   1.743915   2.130044   2.572460   2.852915
    12  O    3.586261   3.804458   2.354868   2.510257   2.881080
    13  H    4.324333   4.360501   3.234654   3.395426   3.816408
                    6          7          8          9         10
     6  C    0.000000
     7  H    2.809126   0.000000
     8  H    2.791318   1.788076   0.000000
     9  H    3.471455   1.775114   1.779414   0.000000
    10  O    1.224975   3.609451   3.951476   4.478845   0.000000
    11  H    3.330682   3.148995   3.862480   2.720618   3.723836
    12  O    1.372205   3.305442   2.584596   3.860090   2.277614
    13  H    1.960229   4.107599   3.490364   4.826770   2.391327
                   11         12         13
    11  H    0.000000
    12  O    4.443636   0.000000
    13  H    5.244353   0.987036   0.000000
 Stoichiometry    C3H7NO2
 Framework group  C1[X(C3H7NO2)]
 Deg. of freedom    33
 Full point group                 C1      NOp   1
 Largest Abelian subgroup         C1      NOp   1
 Largest concise Abelian subgroup C1      NOp   1
                         Standard orientation:                         
 ---------------------------------------------------------------------
 Center     Atomic      Atomic             Coordinates (Angstroms)
 Number     Number       Type             X           Y           Z
 ---------------------------------------------------------------------
      1          7           0       -1.365402   -1.173038   -0.168976
      2          1           0       -0.869653   -1.952012    0.229619
      3          6           0       -0.668588    0.067464   -0.375162
      4          1           0       -0.632423    0.363860   -1.444920
      5          6           0       -1.288622    1.274360    0.397640
      6          6           0        0.773730   -0.145144    0.019764
      7          1           0       -1.309049    1.057123    1.471582
      8          1           0       -0.727493    2.199166    0.224687
      9          1           0       -2.321669    1.425780    0.061006
     10          8           0        1.300536   -1.188297    0.387012
     11          1           0       -2.338098   -1.255068   -0.402185
     12          8           0        1.498512    0.983062   -0.271422
     13          1           0        2.464696    0.834213   -0.135132
 ---------------------------------------------------------------------
 Rotational constants (GHZ):      4.8841150      3.2861346      2.1684854
 Standard basis: 6-31G (6D, 7F)
 There are    68 symmetry adapted cartesian basis functions of A   symmetry.
 There are    68 symmetry adapted basis functions of A   symmetry.
    68 basis functions,   160 primitive gaussians,    68 cartesian basis functions
    24 alpha electrons       24 beta electrons
       nuclear repulsion energy       248.0592840468 Hartrees.
 NAtoms=   13 NActive=   13 NUniq=   13 SFac= 1.00D+00 NAtFMM=   60 NAOKFM=F Big=F
 Integral buffers will be    262144 words long.
 Raffenetti 2 integral format.
 Two-electron integral symmetry is turned on.
 One-electron integrals computed using PRISM.
 NBasis=    68 RedAO= T EigKep=  4.67D-03  NBF=    68
 NBsUse=    68 1.00D-06 EigRej= -1.00D+00 NBFU=    68
 Initial guess from the checkpoint file:  "D:\file\file\Ala-S-opt-6-31g.chk"
 B after Tr=     0.000000    0.000000    0.000000
         Rot=    0.999402   -0.000048    0.000218   -0.034566 Ang=  -3.96 deg.
 ExpMin= 1.61D-01 ExpMax= 5.48D+03 ExpMxC= 8.25D+02 IAcc=1 IRadAn=         1 AccDes= 0.00D+00
 Harris functional with IExCor=  402 and IRadAn=       1 diagonalized for initial guess.
 HarFok:  IExCor=  402 AccDes= 0.00D+00 IRadAn=         1 IDoV= 1 UseB2=F ITyADJ=14
 ICtDFT=  3500011 ScaDFX=  1.000000  1.000000  1.000000  1.000000
 FoFCou: FMM=F IPFlag=           0 FMFlag=      100000 FMFlg1=           0
         NFxFlg=           0 DoJE=T BraDBF=F KetDBF=T FulRan=T
         wScrn=  0.000000 ICntrl=     500 IOpCl=  0 I1Cent=   200000004 NGrid=           0
         NMat0=    1 NMatS0=      1 NMatT0=    0 NMatD0=    1 NMtDS0=    0 NMtDT0=    0
 Petite list used in FoFCou.
 Keep R1 ints in memory in canonical form, NReq=3671903.
 Requested convergence on RMS density matrix=1.00D-08 within 128 cycles.
 Requested convergence on MAX density matrix=1.00D-06.
 Requested convergence on             energy=1.00D-06.
 No special actions if energy rises.
 Integral accuracy reduced to 1.0D-05 until final iterations.
 Initial convergence to 1.0D-05 achieved.  Increase integral accuracy.
 SCF Done:  E(RB3LYP) =  -323.630292910     A.U. after   14 cycles
            NFock= 14  Conv=0.90D-08     -V/T= 2.0056
 Calling FoFJK, ICntrl=      2127 FMM=F ISym2X=0 I1Cent= 0 IOpClX= 0 NMat=1 NMatS=1 NMatT=0.
 ***** Axes restored to original set *****
 -------------------------------------------------------------------
 Center     Atomic                   Forces (Hartrees/Bohr)
 Number     Number              X              Y              Z
 -------------------------------------------------------------------
      1        7          -0.001809719   -0.001767032    0.000934441
      2        1          -0.000928718   -0.000898056   -0.000669048
      3        6          -0.003852103   -0.003175994    0.007081648
      4        1           0.002809711   -0.000576693    0.001758697
      5        6           0.002182792   -0.001651808   -0.001249920
      6        6          -0.015276657    0.002405984   -0.015809777
      7        1          -0.000312578   -0.000022283   -0.000517025
      8        1           0.001110828   -0.001020860   -0.001130408
      9        1           0.000958668    0.000368673   -0.000178682
     10        8           0.013506620   -0.003044298    0.005485339
     11        1           0.001538318    0.000466088    0.000232352
     12        8           0.002338048    0.013045163    0.001550486
     13        1          -0.002265210   -0.004128884    0.002511899
 -------------------------------------------------------------------
 Cartesian Forces:  Max     0.015809777 RMS     0.005138884

 GradGradGradGradGradGradGradGradGradGradGradGradGradGradGradGradGradGrad
 Berny optimization.
 Using GEDIIS/GDIIS optimizer.
 FormGI is forming the generalized inverse of G from B-inverse, IUseBI=4.
 Internal  Forces:  Max     0.013150388 RMS     0.003343909
 Search for a local minimum.
 Step number   3 out of a maximum of   64
 All quantities printed in internal units (Hartrees-Bohrs-Radians)
 Mixed Optimization -- RFO/linear search
 Update second derivatives using D2CorX and points    2    3
 DE= -4.32D-03 DEPred=-8.30D-03 R= 5.20D-01
 TightC=F SS=  1.41D+00  RLast= 7.71D-01 DXNew= 8.4853D-01 2.3142D+00
 Trust test= 5.20D-01 RLast= 7.71D-01 DXMaxT set to 8.49D-01
 ITU=  1  1  0
 Use linear search instead of GDIIS.
     Eigenvalues ---    0.00435   0.00475   0.00683   0.01043   0.01045
     Eigenvalues ---    0.02553   0.04402   0.05236   0.05541   0.05865
     Eigenvalues ---    0.06837   0.15894   0.16000   0.16000   0.16000
     Eigenvalues ---    0.16061   0.16140   0.17914   0.19090   0.24547
     Eigenvalues ---    0.24886   0.30064   0.32164   0.34752   0.34813
     Eigenvalues ---    0.34813   0.35199   0.38355   0.40684   0.47691
     Eigenvalues ---    0.47758   0.55718   0.81358
 RFO step:  Lambda=-5.48500660D-03 EMin= 4.34900469D-03
 Quartic linear search produced a step of -0.20858.
 Iteration  1 RMS(Cart)=  0.08131288 RMS(Int)=  0.02084588
 Iteration  2 RMS(Cart)=  0.02758571 RMS(Int)=  0.00381823
 Iteration  3 RMS(Cart)=  0.00109184 RMS(Int)=  0.00363725
 Iteration  4 RMS(Cart)=  0.00000186 RMS(Int)=  0.00363725
 Iteration  5 RMS(Cart)=  0.00000001 RMS(Int)=  0.00363725
 Variable       Old X    -DE/DX   Delta X   Delta X   Delta X     New X
                                 (Linear)    (Quad)   (Total)
    R1        1.90051  -0.00093  -0.00053  -0.00152  -0.00204   1.89847
    R2        2.71681   0.00134   0.00188  -0.00052   0.00136   2.71817
    R3        1.89657  -0.00118  -0.00040  -0.00158  -0.00198   1.89458
    R4        2.09882  -0.00311  -0.00296  -0.00270  -0.00565   2.09317
    R5        2.95080  -0.00508  -0.00196  -0.01819  -0.02014   2.93065
    R6        2.85433   0.00522  -0.00087   0.01997   0.01910   2.87343
    R7        2.07092  -0.00060  -0.00101   0.00047  -0.00054   2.07038
    R8        2.07013  -0.00139   0.00008  -0.00520  -0.00513   2.06500
    R9        2.07305  -0.00093  -0.00111  -0.00025  -0.00136   2.07169
   R10        2.31487   0.01315   0.00471   0.00635   0.01106   2.32592
   R11        2.59309   0.00749   0.00919  -0.00065   0.00854   2.60163
   R12        1.86523  -0.00496  -0.00368  -0.00248  -0.00616   1.85907
    A1        2.07859   0.00045   0.00258  -0.00485  -0.00226   2.07633
    A2        2.10196  -0.00126   0.00012  -0.00735  -0.00722   2.09474
    A3        2.10244   0.00081  -0.00266   0.01220   0.00955   2.11198
    A4        1.96512  -0.00043  -0.00452   0.00299  -0.00157   1.96356
    A5        1.98611  -0.00204  -0.00069  -0.01390  -0.01460   1.97151
    A6        1.87955   0.00210   0.00004   0.01974   0.01983   1.89937
    A7        1.85809   0.00140   0.00400  -0.00068   0.00327   1.86135
    A8        1.83207  -0.00077   0.00526  -0.01188  -0.00665   1.82542
    A9        1.93752  -0.00022  -0.00376   0.00358  -0.00011   1.93742
   A10        1.91685   0.00040  -0.00062   0.00347   0.00286   1.91971
   A11        1.95085  -0.00177  -0.00049  -0.01351  -0.01403   1.93682
   A12        1.90576  -0.00028   0.00221  -0.00881  -0.00663   1.89913
   A13        1.90881   0.00073  -0.00133   0.00891   0.00760   1.91641
   A14        1.88655   0.00008   0.00072   0.00242   0.00316   1.88970
   A15        1.89377   0.00090  -0.00046   0.00802   0.00749   1.90125
   A16        2.22548  -0.00663  -0.01036   0.00850  -0.01708   2.20840
   A17        1.91044   0.01007   0.01605   0.01636   0.01708   1.92752
   A18        2.13722  -0.00248  -0.00404   0.01426  -0.00536   2.13185
   A19        1.94308  -0.00201  -0.00439   0.00190  -0.00249   1.94058
    D1        2.06911  -0.00033  -0.00195  -0.00690  -0.00884   2.06026
    D2       -2.09770  -0.00034  -0.00063  -0.01599  -0.01659  -2.11429
    D3        0.05781  -0.00045  -0.00586  -0.00616  -0.01206   0.04576
    D4       -1.09404  -0.00010   0.00210  -0.00689  -0.00478  -1.09882
    D5        1.02234  -0.00011   0.00342  -0.01598  -0.01252   1.00981
    D6       -3.10533  -0.00021  -0.00180  -0.00615  -0.00799  -3.11333
    D7        1.01044   0.00079   0.00022   0.01555   0.01576   1.02620
    D8        3.13235   0.00081  -0.00220   0.02020   0.01796  -3.13287
    D9       -1.05536   0.00062  -0.00162   0.01582   0.01420  -1.04115
   D10       -3.09774  -0.00007  -0.00308   0.00964   0.00657  -3.09117
   D11       -0.97583  -0.00006  -0.00550   0.01430   0.00877  -0.96705
   D12        1.11965  -0.00024  -0.00492   0.00991   0.00502   1.12467
   D13       -1.11322  -0.00032   0.00343  -0.00297   0.00047  -1.11275
   D14        1.00869  -0.00031   0.00101   0.00168   0.00268   1.01137
   D15        3.10417  -0.00049   0.00159  -0.00270  -0.00108   3.10309
   D16        0.06012  -0.00328  -0.02288  -0.15210  -0.17412  -0.11399
   D17        3.05127   0.00392   0.02300   0.14023   0.16232  -3.06960
   D18       -2.03739  -0.00342  -0.02041  -0.15910  -0.17861  -2.21600
   D19        0.95375   0.00378   0.02547   0.13323   0.15783   1.11158
   D20        2.24496  -0.00453  -0.02615  -0.15351  -0.17876   2.06620
   D21       -1.04708   0.00267   0.01974   0.13882   0.15767  -0.88941
   D22       -3.01154  -0.00455   0.08067  -0.46131  -0.38076   2.89089
   D23       -0.01131   0.00171   0.12412  -0.18723  -0.06299  -0.07431
         Item               Value     Threshold  Converged?
 Maximum Force            0.013150     0.000450     NO 
 RMS     Force            0.003344     0.000300     NO 
 Maximum Displacement     0.540875     0.001800     NO 
 RMS     Displacement     0.103716     0.001200     NO 
 Predicted change in Energy=-4.095422D-03
 GradGradGradGradGradGradGradGradGradGradGradGradGradGradGradGradGradGrad

                          Input orientation:                          
 ---------------------------------------------------------------------
 Center     Atomic      Atomic             Coordinates (Angstroms)
 Number     Number       Type             X           Y           Z
 ---------------------------------------------------------------------
      1          7           0       -1.612857    0.022640    0.026097
      2          1           0       -0.609018    0.024283   -0.013598
      3          6           0       -2.314387    1.276955   -0.033325
      4          1           0       -2.976238    1.351016   -0.918406
      5          6           0       -3.205403    1.531252    1.210265
      6          6           0       -1.302442    2.396915   -0.217021
      7          1           0       -2.592649    1.521309    2.118430
      8          1           0       -3.729031    2.486793    1.127426
      9          1           0       -3.945104    0.725658    1.285875
     10          8           0       -0.076684    2.288311   -0.191448
     11          1           0       -2.109667   -0.843009    0.120862
     12          8           0       -1.930114    3.621839   -0.186153
     13          1           0       -1.280016    4.351769   -0.074814
 ---------------------------------------------------------------------
                    Distance matrix (angstroms):
                    1          2          3          4          5
     1  N    0.000000
     2  H    1.004625   0.000000
     3  C    1.438396   2.116096   0.000000
     4  H    2.124966   2.860530   1.107656   0.000000
     5  C    2.492863   3.241915   1.550836   2.148544   0.000000
     6  C    2.406791   2.480242   1.520555   2.094621   2.531359
     7  H    2.753881   3.274359   2.183389   3.065700   1.095596
     8  H    3.429748   4.135260   2.193689   2.458072   1.092753
     9  H    2.742381   3.648291   2.168745   2.487696   1.096292
    10  O    2.745982   2.332559   2.460723   3.132794   3.510957
    11  H    1.002571   1.738454   2.135399   2.577744   2.832763
    12  O    3.619383   3.836337   2.381072   2.605227   2.819024
    13  H    4.343078   4.379626   3.244399   3.548709   3.648816
                    6          7          8          9         10
     6  C    0.000000
     7  H    2.808141   0.000000
     8  H    2.775599   1.790422   0.000000
     9  H    3.469216   1.776329   1.781402   0.000000
    10  O    1.230825   3.500559   3.888247   4.425951   0.000000
    11  H    3.356022   3.132658   3.837068   2.680820   3.746427
    12  O    1.376722   3.187833   2.499984   3.822946   2.283315
    13  H    1.960148   3.813769   3.304722   4.701367   2.391542
                   11         12         13
    11  H    0.000000
    12  O    4.478991   0.000000
    13  H    5.264250   0.983779   0.000000
 Stoichiometry    C3H7NO2
 Framework group  C1[X(C3H7NO2)]
 Deg. of freedom    33
 Full point group                 C1      NOp   1
 Largest Abelian subgroup         C1      NOp   1
 Largest concise Abelian subgroup C1      NOp   1
                         Standard orientation:                         
 ---------------------------------------------------------------------
 Center     Atomic      Atomic             Coordinates (Angstroms)
 Number     Number       Type             X           Y           Z
 ---------------------------------------------------------------------
      1          7           0       -1.465978   -1.084048   -0.129975
      2          1           0       -1.008635   -1.903208    0.229311
      3          6           0       -0.681322    0.091886   -0.395451
      4          1           0       -0.699199    0.381020   -1.464555
      5          6           0       -1.156729    1.330402    0.407765
      6          6           0        0.779197   -0.217277   -0.106681
      7          1           0       -1.110901    1.120301    1.482050
      8          1           0       -0.545152    2.205641    0.175307
      9          1           0       -2.198966    1.544368    0.143535
     10          8           0        1.224419   -1.249669    0.394193
     11          1           0       -2.456625   -1.089562   -0.284042
     12          8           0        1.549654    0.913085   -0.261737
     13          1           0        2.441864    0.792388    0.134768
 ---------------------------------------------------------------------
 Rotational constants (GHZ):      4.8982949      3.2934484      2.1793907
 Standard basis: 6-31G (6D, 7F)
 There are    68 symmetry adapted cartesian basis functions of A   symmetry.
 There are    68 symmetry adapted basis functions of A   symmetry.
    68 basis functions,   160 primitive gaussians,    68 cartesian basis functions
    24 alpha electrons       24 beta electrons
       nuclear repulsion energy       248.0584355606 Hartrees.
 NAtoms=   13 NActive=   13 NUniq=   13 SFac= 1.00D+00 NAtFMM=   60 NAOKFM=F Big=F
 Integral buffers will be    262144 words long.
 Raffenetti 2 integral format.
 Two-electron integral symmetry is turned on.
 One-electron integrals computed using PRISM.
 NBasis=    68 RedAO= T EigKep=  4.74D-03  NBF=    68
 NBsUse=    68 1.00D-06 EigRej= -1.00D+00 NBFU=    68
 Initial guess from the checkpoint file:  "D:\file\file\Ala-S-opt-6-31g.chk"
 B after Tr=     0.000000    0.000000    0.000000
         Rot=    0.999506   -0.000019   -0.006216    0.030799 Ang=  -3.60 deg.
 ExpMin= 1.61D-01 ExpMax= 5.48D+03 ExpMxC= 8.25D+02 IAcc=1 IRadAn=         1 AccDes= 0.00D+00
 Harris functional with IExCor=  402 and IRadAn=       1 diagonalized for initial guess.
 HarFok:  IExCor=  402 AccDes= 0.00D+00 IRadAn=         1 IDoV= 1 UseB2=F ITyADJ=14
 ICtDFT=  3500011 ScaDFX=  1.000000  1.000000  1.000000  1.000000
 FoFCou: FMM=F IPFlag=           0 FMFlag=      100000 FMFlg1=           0
         NFxFlg=           0 DoJE=T BraDBF=F KetDBF=T FulRan=T
         wScrn=  0.000000 ICntrl=     500 IOpCl=  0 I1Cent=   200000004 NGrid=           0
         NMat0=    1 NMatS0=      1 NMatT0=    0 NMatD0=    1 NMtDS0=    0 NMtDT0=    0
 Petite list used in FoFCou.
 Keep R1 ints in memory in canonical form, NReq=3671903.
 Requested convergence on RMS density matrix=1.00D-08 within 128 cycles.
 Requested convergence on MAX density matrix=1.00D-06.
 Requested convergence on             energy=1.00D-06.
 No special actions if energy rises.
 Integral accuracy reduced to 1.0D-05 until final iterations.
 Initial convergence to 1.0D-05 achieved.  Increase integral accuracy.
 SCF Done:  E(RB3LYP) =  -323.629287959     A.U. after   15 cycles
            NFock= 15  Conv=0.21D-08     -V/T= 2.0056
 Calling FoFJK, ICntrl=      2127 FMM=F ISym2X=0 I1Cent= 0 IOpClX= 0 NMat=1 NMatS=1 NMatT=0.
 ***** Axes restored to original set *****
 -------------------------------------------------------------------
 Center     Atomic                   Forces (Hartrees/Bohr)
 Number     Number              X              Y              Z
 -------------------------------------------------------------------
      1        7           0.002324606    0.001575000   -0.001721536
      2        1           0.000360599   -0.000681260    0.000157297
      3        6          -0.002335896   -0.001052477   -0.009354272
      4        1          -0.000791791   -0.002096739    0.000206569
      5        6           0.001471037    0.000689696   -0.000053565
      6        6          -0.005369377    0.000140264    0.025382074
      7        1          -0.000438518    0.000240596   -0.000368896
      8        1          -0.000503249   -0.000266920    0.000665732
      9        1           0.000554424    0.000230691    0.000146542
     10        8           0.004833453   -0.002556452   -0.006967390
     11        1          -0.000139327    0.000496824   -0.000276787
     12        8           0.000245262    0.005489721   -0.003418611
     13        1          -0.000211223   -0.002208944   -0.004397157
 -------------------------------------------------------------------
 Cartesian Forces:  Max     0.025382074 RMS     0.004890613

 GradGradGradGradGradGradGradGradGradGradGradGradGradGradGradGradGradGrad
 Berny optimization.
 Using GEDIIS/GDIIS optimizer.
 FormGI is forming the generalized inverse of G from B-inverse, IUseBI=4.
 Internal  Forces:  Max     0.008269810 RMS     0.002696022
 Search for a local minimum.
 Step number   4 out of a maximum of   64
 All quantities printed in internal units (Hartrees-Bohrs-Radians)
 Mixed Optimization -- RFO/linear search
 Update second derivatives using D2CorX and points    4    3
 DE=  1.00D-03 DEPred=-4.10D-03 R=-2.45D-01
 Trust test=-2.45D-01 RLast= 5.69D-01 DXMaxT set to 4.24D-01
 ITU= -1  1  1  0
 Use linear search instead of GDIIS.
 Energy rises -- skip Quadratic/GDIIS search.
 Quartic linear search produced a step of -0.57292.
 Iteration  1 RMS(Cart)=  0.05687236 RMS(Int)=  0.00431235
 Iteration  2 RMS(Cart)=  0.00523434 RMS(Int)=  0.00097024
 Iteration  3 RMS(Cart)=  0.00003204 RMS(Int)=  0.00096969
 Iteration  4 RMS(Cart)=  0.00000000 RMS(Int)=  0.00096969
 Variable       Old X    -DE/DX   Delta X   Delta X   Delta X     New X
                                 (Linear)    (Quad)   (Total)
    R1        1.89847   0.00035   0.00117   0.00000   0.00117   1.89964
    R2        2.71817  -0.00005  -0.00078   0.00000  -0.00078   2.71739
    R3        1.89458  -0.00039   0.00114   0.00000   0.00114   1.89572
    R4        2.09317   0.00017   0.00324   0.00000   0.00324   2.09641
    R5        2.93065  -0.00016   0.01154   0.00000   0.01154   2.94219
    R6        2.87343  -0.00098  -0.01094   0.00000  -0.01094   2.86249
    R7        2.07038  -0.00055   0.00031   0.00000   0.00031   2.07069
    R8        2.06500  -0.00004   0.00294   0.00000   0.00294   2.06794
    R9        2.07169  -0.00053   0.00078   0.00000   0.00078   2.07247
   R10        2.32592   0.00489  -0.00633   0.00000  -0.00633   2.31959
   R11        2.60163   0.00273  -0.00489   0.00000  -0.00489   2.59674
   R12        1.85907  -0.00228   0.00353   0.00000   0.00353   1.86260
    A1        2.07633   0.00111   0.00129   0.00000   0.00129   2.07763
    A2        2.09474  -0.00021   0.00414   0.00000   0.00414   2.09888
    A3        2.11198  -0.00090  -0.00547   0.00000  -0.00547   2.10651
    A4        1.96356  -0.00100   0.00090   0.00000   0.00090   1.96446
    A5        1.97151   0.00246   0.00836   0.00000   0.00837   1.97988
    A6        1.89937  -0.00310  -0.01136   0.00000  -0.01136   1.88801
    A7        1.86135  -0.00031  -0.00187   0.00000  -0.00186   1.85949
    A8        1.82542   0.00226   0.00381   0.00000   0.00381   1.82923
    A9        1.93742  -0.00028   0.00006   0.00000   0.00005   1.93746
   A10        1.91971   0.00005  -0.00164   0.00000  -0.00164   1.91807
   A11        1.93682   0.00126   0.00804   0.00000   0.00804   1.94487
   A12        1.89913  -0.00025   0.00380   0.00000   0.00381   1.90294
   A13        1.91641  -0.00056  -0.00435   0.00000  -0.00436   1.91206
   A14        1.88970  -0.00012  -0.00181   0.00000  -0.00181   1.88789
   A15        1.90125  -0.00041  -0.00429   0.00000  -0.00427   1.89698
   A16        2.20840  -0.00418   0.00979   0.00000   0.01389   2.22229
   A17        1.92752   0.00772  -0.00979   0.00000  -0.00568   1.92184
   A18        2.13185  -0.00184   0.00307   0.00000   0.00718   2.13903
   A19        1.94058  -0.00228   0.00143   0.00000   0.00143   1.94201
    D1        2.06026  -0.00006   0.00507   0.00000   0.00507   2.06533
    D2       -2.11429   0.00060   0.00950   0.00000   0.00949  -2.10480
    D3        0.04576  -0.00034   0.00691   0.00000   0.00692   0.05267
    D4       -1.09882   0.00000   0.00274   0.00000   0.00274  -1.09608
    D5        1.00981   0.00067   0.00717   0.00000   0.00716   1.01698
    D6       -3.11333  -0.00027   0.00458   0.00000   0.00459  -3.10874
    D7        1.02620  -0.00084  -0.00903   0.00000  -0.00903   1.01717
    D8       -3.13287  -0.00069  -0.01029   0.00000  -0.01028   3.14003
    D9       -1.04115  -0.00058  -0.00814   0.00000  -0.00814  -1.04929
   D10       -3.09117  -0.00073  -0.00376   0.00000  -0.00376  -3.09493
   D11       -0.96705  -0.00058  -0.00503   0.00000  -0.00502  -0.97208
   D12        1.12467  -0.00046  -0.00287   0.00000  -0.00288   1.12179
   D13       -1.11275   0.00162  -0.00027   0.00000  -0.00027  -1.11302
   D14        1.01137   0.00178  -0.00153   0.00000  -0.00153   1.00984
   D15        3.10309   0.00189   0.00062   0.00000   0.00061   3.10370
   D16       -0.11399   0.00361   0.09975   0.00000   0.09968  -0.01431
   D17       -3.06960  -0.00654  -0.09299   0.00000  -0.09291   3.12068
   D18       -2.21600   0.00509   0.10233   0.00000   0.10224  -2.11376
   D19        1.11158  -0.00506  -0.09042   0.00000  -0.09034   1.02123
   D20        2.06620   0.00436   0.10241   0.00000   0.10233   2.16853
   D21       -0.88941  -0.00579  -0.09033   0.00000  -0.09026  -0.97967
   D22        2.89089   0.00827   0.21814   0.00000   0.21843   3.10932
   D23       -0.07431  -0.00100   0.03609   0.00000   0.03580  -0.03850
         Item               Value     Threshold  Converged?
 Maximum Force            0.008270     0.000450     NO 
 RMS     Force            0.002696     0.000300     NO 
 Maximum Displacement     0.311553     0.001800     NO 
 RMS     Displacement     0.059470     0.001200     NO 
 Predicted change in Energy=-1.273694D-03
 GradGradGradGradGradGradGradGradGradGradGradGradGradGradGradGradGradGrad

                          Input orientation:                          
 ---------------------------------------------------------------------
 Center     Atomic      Atomic             Coordinates (Angstroms)
 Number     Number       Type             X           Y           Z
 ---------------------------------------------------------------------
      1          7           0       -1.606945    0.035009    0.016287
      2          1           0       -0.601858    0.037535   -0.001330
      3          6           0       -2.308638    1.289937   -0.007757
      4          1           0       -2.956362    1.398227   -0.901865
      5          6           0       -3.223887    1.511569    1.232109
      6          6           0       -1.286299    2.400572   -0.133538
      7          1           0       -2.626903    1.463399    2.149703
      8          1           0       -3.739898    2.475226    1.181065
      9          1           0       -3.974298    0.712689    1.270026
     10          8           0       -0.065572    2.285547   -0.190852
     11          1           0       -2.109426   -0.831750    0.067228
     12          8           0       -1.917489    3.619984   -0.187202
     13          1           0       -1.266036    4.357785   -0.239681
 ---------------------------------------------------------------------
                    Distance matrix (angstroms):
                    1          2          3          4          5
     1  N    0.000000
     2  H    1.005245   0.000000
     3  C    1.437983   2.116991   0.000000
     4  H    2.126568   2.864635   1.109370   0.000000
     5  C    2.504586   3.251028   1.556942   2.153662   0.000000
     6  C    2.391892   2.463713   1.514764   2.093831   2.531712
     7  H    2.762621   3.280371   2.187696   3.069993   1.095760
     8  H    3.443959   4.145804   2.206063   2.472338   1.094307
     9  H    2.763236   3.666815   2.177238   2.494648   1.096705
    10  O    2.735628   2.318853   2.460917   3.106372   3.549481
    11  H    1.003172   1.741585   2.132337   2.574731   2.844312
    12  O    3.604148   3.820912   2.369455   2.554643   2.857715
    13  H    4.343746   4.377499   3.248461   3.471984   3.755036
                    6          7          8          9         10
     6  C    0.000000
     7  H    2.808683   0.000000
     8  H    2.784583   1.789081   0.000000
     9  H    3.470487   1.775633   1.780279   0.000000
    10  O    1.227474   3.565745   3.926679   4.459393   0.000000
    11  H    3.341519   3.142004   3.851644   2.703657   3.736508
    12  O    1.374134   3.258105   2.550255   3.847900   2.282615
    13  H    1.960194   3.992315   3.417973   4.785459   2.395343
                   11         12         13
    11  H    0.000000
    12  O    4.463127   0.000000
    13  H    5.266571   0.985645   0.000000
 Stoichiometry    C3H7NO2
 Framework group  C1[X(C3H7NO2)]
 Deg. of freedom    33
 Full point group                 C1      NOp   1
 Largest Abelian subgroup         C1      NOp   1
 Largest concise Abelian subgroup C1      NOp   1
                         Standard orientation:                         
 ---------------------------------------------------------------------
 Center     Atomic      Atomic             Coordinates (Angstroms)
 Number     Number       Type             X           Y           Z
 ---------------------------------------------------------------------
      1          7           0       -1.411695   -1.134939   -0.152465
      2          1           0       -0.931942   -1.931669    0.229079
      3          6           0       -0.675315    0.078301   -0.383960
      4          1           0       -0.662396    0.370630   -1.454043
      5          6           0       -1.232706    1.300752    0.402804
      6          6           0        0.776477   -0.176207   -0.034626
      7          1           0       -1.224644    1.087656    1.477613
      8          1           0       -0.648252    2.204343    0.204195
      9          1           0       -2.270757    1.479455    0.097392
     10          8           0        1.268443   -1.217758    0.389440
     11          1           0       -2.393697   -1.183832   -0.351553
     12          8           0        1.523527    0.953402   -0.267317
     13          1           0        2.467058    0.815765   -0.017712
 ---------------------------------------------------------------------
 Rotational constants (GHZ):      4.8869051      3.2844964      2.1691525
 Standard basis: 6-31G (6D, 7F)
 There are    68 symmetry adapted cartesian basis functions of A   symmetry.
 There are    68 symmetry adapted basis functions of A   symmetry.
    68 basis functions,   160 primitive gaussians,    68 cartesian basis functions
    24 alpha electrons       24 beta electrons
       nuclear repulsion energy       247.9503985198 Hartrees.
 NAtoms=   13 NActive=   13 NUniq=   13 SFac= 1.00D+00 NAtFMM=   60 NAOKFM=F Big=F
 Integral buffers will be    262144 words long.
 Raffenetti 2 integral format.
 Two-electron integral symmetry is turned on.
 One-electron integrals computed using PRISM.
 NBasis=    68 RedAO= T EigKep=  4.68D-03  NBF=    68
 NBsUse=    68 1.00D-06 EigRej= -1.00D+00 NBFU=    68
 Lowest energy guess from the checkpoint file:  "D:\file\file\Ala-S-opt-6-31g.chk"
 B after Tr=     0.000000    0.000000    0.000000
         Rot=    0.999904   -0.000173   -0.002724    0.013615 Ang=  -1.59 deg.
 B after Tr=     0.000000    0.000000    0.000000
         Rot=    0.999846   -0.000152    0.003470   -0.017178 Ang=  -2.01 deg.
 Keep R1 ints in memory in canonical form, NReq=3671903.
 Requested convergence on RMS density matrix=1.00D-08 within 128 cycles.
 Requested convergence on MAX density matrix=1.00D-06.
 Requested convergence on             energy=1.00D-06.
 No special actions if energy rises.
 Integral accuracy reduced to 1.0D-05 until final iterations.
 Initial convergence to 1.0D-05 achieved.  Increase integral accuracy.
 SCF Done:  E(RB3LYP) =  -323.631613721     A.U. after   12 cycles
            NFock= 12  Conv=0.38D-08     -V/T= 2.0056
 Calling FoFJK, ICntrl=      2127 FMM=F ISym2X=0 I1Cent= 0 IOpClX= 0 NMat=1 NMatS=1 NMatT=0.
 ***** Axes restored to original set *****
 -------------------------------------------------------------------
 Center     Atomic                   Forces (Hartrees/Bohr)
 Number     Number              X              Y              Z
 -------------------------------------------------------------------
      1        7          -0.000009913   -0.000230252   -0.000142393
      2        1          -0.000369787   -0.000803649   -0.000304079
      3        6          -0.002700794   -0.001391782    0.000019644
      4        1           0.001262578   -0.001117385    0.000977464
      5        6           0.001914142   -0.000631852   -0.000732544
      6        6          -0.010970747    0.001391858    0.001488813
      7        1          -0.000374573    0.000092620   -0.000457017
      8        1           0.000424632   -0.000687648   -0.000362105
[...]
   A13        1.90552   0.00000   0.00000   0.00000   0.00000   1.90552
   A14        1.88995   0.00000  -0.00001  -0.00001  -0.00002   1.88993
   A15        1.89272   0.00000   0.00003  -0.00002   0.00001   1.89273
   A16        2.19683   0.00001   0.00001   0.00004   0.00006   2.19689
   A17        1.95120  -0.00001  -0.00001  -0.00002  -0.00003   1.95117
   A18        2.13455  -0.00001   0.00000  -0.00003  -0.00003   2.13453
   A19        1.92549  -0.00001  -0.00002  -0.00003  -0.00006   1.92543
    D1        2.50819   0.00000   0.00081   0.00017   0.00098   2.50917
    D2       -1.64978   0.00000   0.00083   0.00011   0.00094  -1.64884
    D3        0.47732   0.00000   0.00079   0.00016   0.00096   0.47828
    D4       -1.30304   0.00000   0.00085   0.00013   0.00098  -1.30206
    D5        0.82218   0.00000   0.00087   0.00006   0.00093   0.82312
    D6        2.94928   0.00000   0.00083   0.00011   0.00095   2.95023
    D7        1.04956   0.00000   0.00005  -0.00020  -0.00015   1.04941
    D8       -3.11498   0.00000   0.00005  -0.00021  -0.00016  -3.11514
    D9       -1.02536   0.00000   0.00007  -0.00020  -0.00013  -1.02549
   D10       -3.08400   0.00000   0.00007  -0.00026  -0.00020  -3.08420
   D11       -0.96536   0.00000   0.00007  -0.00028  -0.00021  -0.96557
   D12        1.12426   0.00000   0.00009  -0.00027  -0.00018   1.12408
   D13       -1.06570   0.00000   0.00005  -0.00025  -0.00020  -1.06590
   D14        1.05295   0.00000   0.00006  -0.00027  -0.00021   1.05274
   D15       -3.14062   0.00000   0.00007  -0.00026  -0.00018  -3.14080
   D16       -0.31733   0.00000  -0.00023  -0.00019  -0.00042  -0.31775
   D17        2.86086   0.00000  -0.00016  -0.00012  -0.00027   2.86059
   D18       -2.38757   0.00000  -0.00021  -0.00016  -0.00038  -2.38795
   D19        0.79062   0.00000  -0.00015  -0.00008  -0.00023   0.79039
   D20        1.86709   0.00000  -0.00017  -0.00013  -0.00031   1.86679
   D21       -1.23790   0.00001  -0.00010  -0.00006  -0.00016  -1.23806
   D22        3.10299   0.00000  -0.00007  -0.00016  -0.00023   3.10276
   D23       -0.00352   0.00000   0.00000  -0.00008  -0.00009  -0.00361
         Item               Value     Threshold  Converged?
 Maximum Force            0.000033     0.000450     YES
 RMS     Force            0.000007     0.000300     YES
 Maximum Displacement     0.001651     0.001800     YES
 RMS     Displacement     0.000331     0.001200     YES
 Predicted change in Energy=-7.028032D-09
 Optimization completed.
    -- Stationary point found.
                           ----------------------------
                           !   Optimized Parameters   !
                           ! (Angstroms and Degrees)  !
 --------------------------                            --------------------------
 ! Name  Definition              Value          Derivative Info.                !
 --------------------------------------------------------------------------------
 ! R1    R(1,2)                  1.0105         -DE/DX =    0.0                 !
 ! R2    R(1,3)                  1.4512         -DE/DX =    0.0                 !
 ! R3    R(1,11)                 1.0084         -DE/DX =    0.0                 !
 ! R4    R(3,4)                  1.0988         -DE/DX =    0.0                 !
 ! R5    R(3,5)                  1.5549         -DE/DX =    0.0                 !
 ! R6    R(3,6)                  1.5143         -DE/DX =    0.0                 !
 ! R7    R(5,7)                  1.0957         -DE/DX =    0.0                 !
 ! R8    R(5,8)                  1.0945         -DE/DX =    0.0                 !
 ! R9    R(5,9)                  1.0957         -DE/DX =    0.0                 !
 ! R10   R(6,10)                 1.2343         -DE/DX =    0.0                 !
 ! R11   R(6,12)                 1.3768         -DE/DX =    0.0                 !
 ! R12   R(12,13)                0.982          -DE/DX =    0.0                 !
 ! A1    A(2,1,3)              115.6641         -DE/DX =    0.0                 !
 ! A2    A(2,1,11)             115.8214         -DE/DX =    0.0                 !
 ! A3    A(3,1,11)             116.7961         -DE/DX =    0.0                 !
 ! A4    A(1,3,4)              110.3077         -DE/DX =    0.0                 !
 ! A5    A(1,3,5)              114.5942         -DE/DX =    0.0                 !
 ! A6    A(1,3,6)              107.9428         -DE/DX =    0.0                 !
 ! A7    A(4,3,5)              107.7278         -DE/DX =    0.0                 !
 ! A8    A(4,3,6)              106.8125         -DE/DX =    0.0                 !
 ! A9    A(5,3,6)              109.1825         -DE/DX =    0.0                 !
 ! A10   A(3,5,7)              110.3069         -DE/DX =    0.0                 !
 ! A11   A(3,5,8)              111.3619         -DE/DX =    0.0                 !
 ! A12   A(3,5,9)              109.191          -DE/DX =    0.0                 !
 ! A13   A(7,5,8)              109.178          -DE/DX =    0.0                 !
 ! A14   A(7,5,9)              108.2862         -DE/DX =    0.0                 !
 ! A15   A(8,5,9)              108.4448         -DE/DX =    0.0                 !
 ! A16   A(3,6,10)             125.8694         -DE/DX =    0.0                 !
 ! A17   A(3,6,12)             111.7956         -DE/DX =    0.0                 !
 ! A18   A(10,6,12)            122.3009         -DE/DX =    0.0                 !
 ! A19   A(6,12,13)            110.3223         -DE/DX =    0.0                 !
 ! D1    D(2,1,3,4)            143.7086         -DE/DX =    0.0                 !
 ! D2    D(2,1,3,5)            -94.5252         -DE/DX =    0.0                 !
 ! D3    D(2,1,3,6)             27.3487         -DE/DX =    0.0                 !
 ! D4    D(11,1,3,4)           -74.6585         -DE/DX =    0.0                 !
 ! D5    D(11,1,3,5)            47.1077         -DE/DX =    0.0                 !
 ! D6    D(11,1,3,6)           168.9815         -DE/DX =    0.0                 !
 ! D7    D(1,3,5,7)             60.1355         -DE/DX =    0.0                 !
 ! D8    D(1,3,5,8)           -178.4752         -DE/DX =    0.0                 !
 ! D9    D(1,3,5,9)            -58.7488         -DE/DX =    0.0                 !
 ! D10   D(4,3,5,7)           -176.7004         -DE/DX =    0.0                 !
 ! D11   D(4,3,5,8)            -55.3111         -DE/DX =    0.0                 !
 ! D12   D(4,3,5,9)             64.4152         -DE/DX =    0.0                 !
 ! D13   D(6,3,5,7)            -61.0598         -DE/DX =    0.0                 !
 ! D14   D(6,3,5,8)             60.3294         -DE/DX =    0.0                 !
 ! D15   D(6,3,5,9)           -179.9442         -DE/DX =    0.0                 !
 ! D16   D(1,3,6,10)           -18.1817         -DE/DX =    0.0                 !
 ! D17   D(1,3,6,12)           163.9151         -DE/DX =    0.0                 !
 ! D18   D(4,3,6,10)          -136.7977         -DE/DX =    0.0                 !
 ! D19   D(4,3,6,12)            45.2992         -DE/DX =    0.0                 !
 ! D20   D(5,3,6,10)           106.9765         -DE/DX =    0.0                 !
 ! D21   D(5,3,6,12)           -70.9266         -DE/DX =    0.0                 !
 ! D22   D(3,6,12,13)          177.788          -DE/DX =    0.0                 !
 ! D23   D(10,6,12,13)          -0.2018         -DE/DX =    0.0                 !
 --------------------------------------------------------------------------------
 GradGradGradGradGradGradGradGradGradGradGradGradGradGradGradGradGradGrad

                          Input orientation:                          
 ---------------------------------------------------------------------
 Center     Atomic      Atomic             Coordinates (Angstroms)
 Number     Number       Type             X           Y           Z
 ---------------------------------------------------------------------
      1          7           0       -1.627241    0.049672   -0.160702
      2          1           0       -0.670747    0.053921    0.165329
      3          6           0       -2.335236    1.311442   -0.048143
      4          1           0       -3.009209    1.448330   -0.905133
      5          6           0       -3.180044    1.466050    1.247992
      6          6           0       -1.313323    2.427088   -0.112027
      7          1           0       -2.536565    1.395134    2.132044
      8          1           0       -3.711357    2.422773    1.265825
      9          1           0       -3.918856    0.658295    1.294856
     10          8           0       -0.099489    2.307738    0.077412
     11          1           0       -2.154767   -0.786752    0.036498
     12          8           0       -1.901609    3.645112   -0.368939
     13          1           0       -1.225168    4.356928   -0.370822
 ---------------------------------------------------------------------
                    Distance matrix (angstroms):
                    1          2          3          4          5
     1  N    0.000000
     2  H    1.010542   0.000000
     3  C    1.451203   2.097010   0.000000
     4  H    2.102441   2.925521   1.098823   0.000000
     5  C    2.530167   3.076173   1.554854   2.159965   0.000000
     6  C    2.398545   2.474217   1.514283   2.112585   2.501578
     7  H    2.809595   3.024582   2.191062   3.074194   1.095738
     8  H    3.465564   4.008474   2.203470   2.481050   1.094501
     9  H    2.782188   3.491606   2.176717   2.508300   1.095676
    10  O    2.736710   2.326747   2.450905   3.189114   3.401252
    11  H    1.008354   1.710451   2.107641   2.571446   2.755726
    12  O    3.611901   3.833681   2.395195   2.517962   2.999529
    13  H    4.331081   4.371579   3.257508   3.453727   3.846982
                    6          7          8          9         10
     6  C    0.000000
     7  H    2.756284   0.000000
     8  H    2.765694   1.785081   0.000000
     9  H    3.449167   1.776103   1.776874   0.000000
    10  O    1.234312   3.315674   3.804096   4.334789   0.000000
    11  H    3.325486   3.049215   3.772966   2.604542   3.715065
    12  O    1.376832   3.423519   2.727958   3.969707   2.288107
    13  H    1.949109   4.093448   3.549747   4.869324   2.380598
                   11         12         13
    11  H    0.000000
    12  O    4.457565   0.000000
    13  H    5.242853   0.981966   0.000000
 Stoichiometry    C3H7NO2
 Framework group  C1[X(C3H7NO2)]
 Deg. of freedom    33
 Full point group                 C1      NOp   1
 Largest Abelian subgroup         C1      NOp   1
 Largest concise Abelian subgroup C1      NOp   1
                         Standard orientation:                         
 ---------------------------------------------------------------------
 Center     Atomic      Atomic             Coordinates (Angstroms)
 Number     Number       Type             X           Y           Z
 ---------------------------------------------------------------------
      1          7           0       -1.433508   -1.085424   -0.344181
      2          1           0       -1.089262   -1.784449    0.299289
      3          6           0       -0.665404    0.144270   -0.406289
      4          1           0       -0.643625    0.528742   -1.435423
      5          6           0       -1.190815    1.282585    0.513359
      6          6           0        0.765007   -0.179637   -0.029375
      7          1           0       -1.174411    0.962940    1.561309
      8          1           0       -0.590696    2.191487    0.405254
      9          1           0       -2.226138    1.516380    0.241416
     10          8           0        1.143976   -1.190083    0.569713
     11          1           0       -2.436385   -0.998432   -0.402908
     12          8           0        1.630681    0.826074   -0.396549
     13          1           0        2.545091    0.610071   -0.111147
 ---------------------------------------------------------------------
 Rotational constants (GHZ):      4.9148296      3.1273900      2.2413793

 **********************************************************************

            Population analysis using the SCF density.

 **********************************************************************

 Orbital symmetries:
       Occupied  (A) (A) (A) (A) (A) (A) (A) (A) (A) (A) (A) (A)
                 (A) (A) (A) (A) (A) (A) (A) (A) (A) (A) (A) (A)
       Virtual   (A) (A) (A) (A) (A) (A) (A) (A) (A) (A) (A) (A)
                 (A) (A) (A) (A) (A) (A) (A) (A) (A) (A) (A) (A)
                 (A) (A) (A) (A) (A) (A) (A) (A) (A) (A) (A) (A)
                 (A) (A) (A) (A) (A) (A) (A) (A)
 The electronic state is 1-A.
 Alpha  occ. eigenvalues --  -19.20158 -19.15571 -14.30101 -10.33626 -10.23658
 Alpha  occ. eigenvalues --  -10.18246  -1.12164  -1.03513  -0.89031  -0.75695
 Alpha  occ. eigenvalues --   -0.67915  -0.59872  -0.53372  -0.48512  -0.46959
 Alpha  occ. eigenvalues --   -0.45431  -0.43718  -0.40879  -0.40275  -0.37773
 Alpha  occ. eigenvalues --   -0.36663  -0.32432  -0.28574  -0.21668
 Alpha virt. eigenvalues --   -0.01301   0.05907   0.08863   0.13323   0.14055
 Alpha virt. eigenvalues --    0.15500   0.17061   0.17611   0.21106   0.23271
 Alpha virt. eigenvalues --    0.25094   0.30439   0.36008   0.52551   0.56034
 Alpha virt. eigenvalues --    0.56551   0.58825   0.61355   0.64014   0.66669
 Alpha virt. eigenvalues --    0.70772   0.76125   0.77164   0.80093   0.81262
 Alpha virt. eigenvalues --    0.86076   0.89699   0.92048   0.92620   0.94918
 Alpha virt. eigenvalues --    0.96394   0.97433   0.97993   0.99596   1.06378
 Alpha virt. eigenvalues --    1.10422   1.11477   1.18804   1.24068   1.31093
 Alpha virt. eigenvalues --    1.47833   1.63691   1.82100   1.92861
          Condensed to atoms (all electrons):
               1          2          3          4          5          6
     1  N    6.960121   0.324112   0.277365  -0.051471  -0.084999  -0.041921
     2  H    0.324112   0.416139  -0.044362   0.004732   0.002539  -0.005466
     3  C    0.277365  -0.044362   5.260366   0.366952   0.301542   0.177460
     4  H   -0.051471   0.004732   0.366952   0.594929  -0.059768  -0.033690
     5  C   -0.084999   0.002539   0.301542  -0.059768   5.212557  -0.040154
     6  C   -0.041921  -0.005466   0.177460  -0.033690  -0.040154   4.788274
     7  H    0.003650   0.001477  -0.038355   0.005740   0.362919  -0.004982
     8  H    0.006084  -0.000111  -0.024980   0.002794   0.335064  -0.002915
     9  H   -0.002969  -0.000284  -0.033095  -0.005435   0.375550   0.004327
    10  O   -0.003897   0.019191  -0.105684   0.002425  -0.001415   0.508923
    11  H    0.329592  -0.029377  -0.037606  -0.001221  -0.001258   0.006255
    12  O    0.002137   0.000599  -0.120072   0.003967   0.003386   0.159146
    13  H   -0.000204  -0.000029   0.010561  -0.000361  -0.000456  -0.011758
               7          8          9         10         11         12
     1  N    0.003650   0.006084  -0.002969  -0.003897   0.329592   0.002137
     2  H    0.001477  -0.000111  -0.000284   0.019191  -0.029377   0.000599
     3  C   -0.038355  -0.024980  -0.033095  -0.105684  -0.037606  -0.120072
     4  H    0.005740   0.002794  -0.005435   0.002425  -0.001221   0.003967
     5  C    0.362919   0.335064   0.375550  -0.001415  -0.001258   0.003386
     6  C   -0.004982  -0.002915   0.004327   0.508923   0.006255   0.159146
     7  H    0.581264  -0.024442  -0.032165   0.001444  -0.000154  -0.000156
     8  H   -0.024442   0.576969  -0.028252   0.000095   0.000021   0.004636
     9  H   -0.032165  -0.028252   0.578475  -0.000072   0.003055   0.000000
    10  O    0.001444   0.000095  -0.000072   8.100849   0.000266  -0.109496
    11  H   -0.000154   0.000021   0.003055   0.000266   0.446000  -0.000068
    12  O   -0.000156   0.004636   0.000000  -0.109496  -0.000068   8.388363
    13  H   -0.000046  -0.000095   0.000014   0.005405   0.000005   0.225240
              13
     1  N   -0.000204
     2  H   -0.000029
     3  C    0.010561
     4  H   -0.000361
     5  C   -0.000456
     6  C   -0.011758
     7  H   -0.000046
     8  H   -0.000095
     9  H    0.000014
    10  O    0.005405
    11  H    0.000005
    12  O    0.225240
    13  H    0.384838
 Mulliken charges:
               1
     1  N   -0.717600
     2  H    0.310839
     3  C    0.009908
     4  H    0.170408
     5  C   -0.405507
     6  C    0.496502
     7  H    0.143806
     8  H    0.155132
     9  H    0.140851
    10  O   -0.418034
    11  H    0.284491
    12  O   -0.557682
    13  H    0.386887
 Sum of Mulliken charges =   0.00000
 Mulliken charges with hydrogens summed into heavy atoms:
               1
     1  N   -0.122271
     3  C    0.180316
     5  C    0.034282
     6  C    0.496502
    10  O   -0.418034
    12  O   -0.170795
 Electronic spatial extent (au):  <R**2>=            585.3568
 Charge=              0.0000 electrons
 Dipole moment (field-independent basis, Debye):
    X=             -0.6065    Y=              1.6940    Z=              0.4210  Tot=              1.8479
 Quadrupole moment (field-independent basis, Debye-Ang):
   XX=            -27.9545   YY=            -40.1156   ZZ=            -37.9958
   XY=              2.2240   XZ=             -1.0860   YZ=              0.2162
 Traceless Quadrupole moment (field-independent basis, Debye-Ang):
   XX=              7.4008   YY=             -4.7603   ZZ=             -2.6405
   XY=              2.2240   XZ=             -1.0860   YZ=              0.2162
 Octapole moment (field-independent basis, Debye-Ang**2):
  XXX=             16.9111  YYY=             -1.9388  ZZZ=              1.1602  XYY=             -3.8430
  XXY=              2.5463  XXZ=             -1.0667  XZZ=              2.2561  YZZ=              1.4030
  YYZ=              2.7091  XYZ=              6.3449
 Hexadecapole moment (field-independent basis, Debye-Ang**3):
 XXXX=           -277.3829 YYYY=           -246.6850 ZZZZ=            -86.9581 XXXY=             30.1560
 XXXZ=              3.8702 YYYX=             10.9035 YYYZ=             -7.5193 ZZZX=             -0.7945
 ZZZY=             -5.7210 XXYY=           -106.5694 XXZZ=            -82.9176 YYZZ=            -61.1592
 XXYZ=              1.0114 YYXZ=             -5.1923 ZZXY=             -0.6391
 N-N= 2.475092769080D+02 E-N=-1.252603976420D+03  KE= 3.218218066960D+02
 1|1|UNPC-DESKTOP-4G7U86H|FOpt|RB3LYP|6-31G|C3H7N1O2|SKY|27-Mar-2016|0|
 |# opt b3lyp/6-31g||Ala-S-opt-6-31g||0,1|N,-1.627240525,0.0496722445,-
 0.1607021754|H,-0.6707468771,0.0539214592,0.1653291423|C,-2.3352359918
 ,1.3114416579,-0.048142695|H,-3.0092093906,1.4483301695,-0.9051333688|
 C,-3.1800439614,1.4660496027,1.2479923845|C,-1.3133233294,2.4270882768
 ,-0.1120266681|H,-2.5365650409,1.3951343039,2.1320437928|H,-3.71135729
 92,2.4227731258,1.2658250686|H,-3.9188558346,0.6582948526,1.2948563273
 |O,-0.099489086,2.30773762,0.0774122813|H,-2.1547665429,-0.7867521966,
 0.0364983059|O,-1.9016090158,3.6451117931,-0.3689389175|H,-1.225168495
 4,4.3569275006,-0.3708221979||Version=IA32W-G09RevD.01|State=1-A|HF=-3
 23.6325997|RMSD=3.742e-009|RMSF=1.093e-005|Dipole=-0.5968932,0.1259074
 ,0.3955069|Quadrupole=-3.1728749,4.6600382,-1.4871633,2.3529705,-0.225
 8741,-2.0382049|PG=C01 [X(C3H7N1O2)]||@


 IT CANNOT BE MY BEAUTY, FOR I HAVE NONE; AND IT CANNOT BE MY WIT,
 FOR HE HAS NOT ENOUGH TO KNOW THAT I HAVE ANY.
 -- CATHARINE SEDLEY, PUZZLED ABOUT WHY SHE WAS MISTRESS TO JAMES II
 Job cpu time:       0 days  0 hours  9 minutes 11.0 seconds.
 File lengths (MBytes):  RWF=      5 Int=      0 D2E=      0 Chk=      1 Scr=      1
 Normal termination of Gaussian 09 at Sun Mar 27 14:51:48 2016.
