 Entering Link 1 = c:\G09w01\l1.exe PID=      7056.
  
 Copyright (c) 1988,1990,1992,1993,1995,1998,2003,2009,2010,
            Gaussian, Inc.  All Rights Reserved.
  
 This is part of the Gaussian(R) 09 program.  It is based on
 the Gaussian(R) 03 system (copyright 2003, Gaussian, Inc.),
 the Gaussian(R) 98 system (copyright 1998, Gaussian, Inc.),
 the Gaussian(R) 94 system (copyright 1995, Gaussian, Inc.),
 the Gaussian 92(TM) system (copyright 1992, Gaussian, Inc.),
 the Gaussian 90(TM) system (copyright 1990, Gaussian, Inc.),
 the Gaussian 88(TM) system (copyright 1988, Gaussian, Inc.),
 the Gaussian 86(TM) system (copyright 1986, Carnegie Mellon
 University), and the Gaussian 82(TM) system (copyright 1983,
 Carnegie Mellon University). Gaussian is a federally registered
 trademark of Gaussian, Inc.
  
 This software contains proprietary and confidential information,
 including trade secrets, belonging to Gaussian, Inc.
  
 This software is provided under written license and may be
 used, copied, transmitted, or stored only in accord with that
 written license.
  
 The following legend is applicable only to US Government
 contracts under FAR:
  
                    RESTRICTED RIGHTS LEGEND
  
 Use, reproduction and disclosure by the US Government is
 subject to restrictions as set forth in subparagraphs (a)
 and (c) of the Commercial Computer Software - Restricted
 Rights clause in FAR 52.227-19.
  
 Gaussian, Inc.
 340 Quinnipiac St., Bldg. 40, Wallingford CT 06492
  
  
 ---------------------------------------------------------------
 Warning -- This program may not be used in any manner that
 competes with the business of Gaussian, Inc. or will provide
 assistance to any competitor of Gaussian, Inc.  The licensee
 of this program is prohibited from giving any competitor of
 Gaussian, Inc. access to this program.  By using this program,
 the user acknowledges that Gaussian, Inc. is engaged in the
 business of creating and licensing software in the field of
 computational chemistry and represents and warrants to the
 licensee that it is not a competitor of Gaussian, Inc. and that
 it will not use this program in any manner prohibited above.
 ---------------------------------------------------------------
  

 Cite this work as:
 Gaussian 09, Revision B.01,
 M. J. Frisch, G. W. Trucks, H. B. Schlegel, G. E. Scuseria, 
 M. A. Robb, J. R. Cheeseman, G. Scalmani, V. Barone, B. Mennucci, 
 G. A. Petersson, H. Nakatsuji, M. Caricato, X. Li, H. P. Hratchian, 
 A. F. Izmaylov, J. Bloino, G. Zheng, J. L. Sonnenberg, M. Hada, 
 M. Ehara, K. Toyota, R. Fukuda, J. Hasegawa, M. Ishida, T. Nakajima, 
 Y. Honda, O. Kitao, H. Nakai, T. Vreven, J. A. Montgomery, Jr., 
 J. E. Peralta, F. Ogliaro, M. Bearpark, J. J. Heyd, E. Brothers, 
 K. N. Kudin, V. N. Staroverov, T. Keith, R. Kobayashi, J. Normand, 
 K. Raghavachari, A. Rendell, J. C. Burant, S. S. Iyengar, J. Tomasi, 
 M. Cossi, N. Rega, J. M. Millam, M. Klene, J. E. Knox, J. B. Cross, 
 V. Bakken, C. Adamo, J. Jaramillo, R. Gomperts, R. E. Stratmann, 
 O. Yazyev, A. J. Austin, R. Cammi, C. Pomelli, J. W. Ochterski, 
 R. L. Martin, K. Morokuma, V. G. Zakrzewski, G. A. Voth, 
 P. Salvador, J. J. Dannenberg, S. Dapprich, A. D. Daniels, 
 O. Farkas, J. B. Foresman, J. V. Ortiz, J. Cioslowski, 
 and D. J. Fox, Gaussian, Inc., Wallingford CT, 2010.
 
 ******************************************
 Gaussian 09:  IA32W-G09RevB.01 12-Aug-2010
                17-Apr-2016 
 ******************************************
 %chk=Ala-S-opt-freq-pcmc-w-311++gdp.chk
 -----------------------------------------------------------------
 #p opt freq rb3lyp/6-311++g(d,p) scrf=(cpcm,solvent=water) nosymm
 -----------------------------------------------------------------
 1/14=-1,18=20,19=15,26=3,38=1/1,3;
 2/9=110,12=2,15=1,17=6,18=5,40=1/2;
 3/5=4,6=6,7=1111,11=2,16=1,25=1,30=1,70=2101,71=1,72=1,74=-5,116=1/1,2,3;
 4//1;
 5/5=2,38=5,53=1/2;
 6/7=2,8=2,9=2,10=2,28=1/1;
 7/30=1/1,2,3,16;
 1/14=-1,18=20,19=15/3(2);
 2/9=110,15=1/2;
 99//99;
 2/9=110,15=1/2;
 3/5=4,6=6,7=1111,11=2,16=1,25=1,30=1,70=2105,71=1,72=1,74=-5,116=1/1,2,3;
 4/5=5,16=3/1;
 5/5=2,38=5,53=1/2;
 7/30=1/1,2,3,16;
 1/14=-1,18=20,19=15/3(-5);
 2/9=110,15=1/2;
 6/7=2,8=2,9=2,10=2,19=2,28=1/1;
 99/9=1/99;
 Leave Link    1 at Sun Apr 17 21:38:12 2016, MaxMem=          0 cpu:       0.0
 (Enter c:\G09w01\l101.exe)
 -----------------------------------
 Ala-S-opt-freq-pcmc-w-6-311++g(d,p)
 -----------------------------------
 Symbolic Z-matrix:
 Charge =  0 Multiplicity = 1
 N                    -1.41515  -1.08616  -0.44237 
 H                    -1.19241  -1.6585    0.3664 
 C                    -0.65403   0.15792  -0.40998 
 H                    -0.62201   0.57997  -1.41901 
 C                    -1.19795   1.24002   0.55106 
 C                     0.77509  -0.16871  -0.01055 
 H                    -1.20783   0.87043   1.58011 
 H                    -0.59729   2.15221   0.50792 
 H                    -2.22253   1.49551   0.26808 
 O                     1.10761  -1.09841   0.68073 
 H                    -2.41213  -0.90308  -0.44562 
 O                     1.65384   0.74679  -0.48074 
 H                     2.52999   0.5041   -0.1444 
 
 NAtoms=     13 NQM=     13 NQMF=      0 NMic=      0 NMicF=      0 NTot=     13.
                    Isotopes and Nuclear Properties:
 (Nuclear quadrupole moments (NQMom) in fm**2, nuclear magnetic moments (NMagM)
  in nuclear magnetons)

  Atom         1           2           3           4           5           6           7           8           9          10
 IAtWgt=          14           1          12           1          12          12           1           1           1          16
 AtmWgt=  14.0030740   1.0078250  12.0000000   1.0078250  12.0000000  12.0000000   1.0078250   1.0078250   1.0078250  15.9949146
 NucSpn=           2           1           0           1           0           0           1           1           1           0
 AtZEff=   0.0000000   0.0000000   0.0000000   0.0000000   0.0000000   0.0000000   0.0000000   0.0000000   0.0000000   0.0000000
 NQMom=    2.0440000   0.0000000   0.0000000   0.0000000   0.0000000   0.0000000   0.0000000   0.0000000   0.0000000   0.0000000
 NMagM=    0.4037610   2.7928460   0.0000000   2.7928460   0.0000000   0.0000000   2.7928460   2.7928460   2.7928460   0.0000000

  Atom        11          12          13
 IAtWgt=           1          16           1
 AtmWgt=   1.0078250  15.9949146   1.0078250
 NucSpn=           1           0           1
 AtZEff=   0.0000000   0.0000000   0.0000000
 NQMom=    0.0000000   0.0000000   0.0000000
 NMagM=    2.7928460   0.0000000   2.7928460
 Leave Link  101 at Sun Apr 17 21:38:12 2016, MaxMem=   33554432 cpu:       0.0
 (Enter c:\G09w01\l103.exe)

 GradGradGradGradGradGradGradGradGradGradGradGradGradGradGradGradGradGrad
 Berny optimization.
 Initialization pass.
                           ----------------------------
                           !    Initial Parameters    !
                           ! (Angstroms and Degrees)  !
 --------------------------                            --------------------------
 ! Name  Definition              Value          Derivative Info.                !
 --------------------------------------------------------------------------------
 ! R1    R(1,2)                  1.0155         estimate D2E/DX2                !
 ! R2    R(1,3)                  1.4588         estimate D2E/DX2                !
 ! R3    R(1,11)                 1.0137         estimate D2E/DX2                !
 ! R4    R(3,4)                  1.0942         estimate D2E/DX2                !
 ! R5    R(3,5)                  1.5461         estimate D2E/DX2                !
 ! R6    R(3,6)                  1.5194         estimate D2E/DX2                !
 ! R7    R(5,7)                  1.0935         estimate D2E/DX2                !
 ! R8    R(5,8)                  1.093          estimate D2E/DX2                !
 ! R9    R(5,9)                  1.0932         estimate D2E/DX2                !
 ! R10   R(6,10)                 1.2053         estimate D2E/DX2                !
 ! R11   R(6,12)                 1.3533         estimate D2E/DX2                !
 ! R12   R(12,13)                0.9694         estimate D2E/DX2                !
 ! A1    A(2,1,3)              110.397          estimate D2E/DX2                !
 ! A2    A(2,1,11)             108.6676         estimate D2E/DX2                !
 ! A3    A(3,1,11)             111.0515         estimate D2E/DX2                !
 ! A4    A(1,3,4)              108.8891         estimate D2E/DX2                !
 ! A5    A(1,3,5)              115.2856         estimate D2E/DX2                !
 ! A6    A(1,3,6)              108.2548         estimate D2E/DX2                !
 ! A7    A(4,3,5)              108.2732         estimate D2E/DX2                !
 ! A8    A(4,3,6)              107.3259         estimate D2E/DX2                !
 ! A9    A(5,3,6)              108.5388         estimate D2E/DX2                !
 ! A10   A(3,5,7)              110.5846         estimate D2E/DX2                !
 ! A11   A(3,5,8)              111.4838         estimate D2E/DX2                !
 ! A12   A(3,5,9)              109.4138         estimate D2E/DX2                !
 ! A13   A(7,5,8)              108.9163         estimate D2E/DX2                !
 ! A14   A(7,5,9)              108.308          estimate D2E/DX2                !
 ! A15   A(8,5,9)              108.0458         estimate D2E/DX2                !
 ! A16   A(3,6,10)             125.1745         estimate D2E/DX2                !
 ! A17   A(3,6,12)             111.962          estimate D2E/DX2                !
 ! A18   A(10,6,12)            122.815          estimate D2E/DX2                !
 ! A19   A(6,12,13)            107.2766         estimate D2E/DX2                !
 ! D1    D(2,1,3,4)            159.8487         estimate D2E/DX2                !
 ! D2    D(2,1,3,5)            -78.2711         estimate D2E/DX2                !
 ! D3    D(2,1,3,6)             43.4703         estimate D2E/DX2                !
 ! D4    D(11,1,3,4)           -79.5522         estimate D2E/DX2                !
 ! D5    D(11,1,3,5)            42.328          estimate D2E/DX2                !
 ! D6    D(11,1,3,6)           164.0694         estimate D2E/DX2                !
 ! D7    D(1,3,5,7)             60.0762         estimate D2E/DX2                !
 ! D8    D(1,3,5,8)           -178.5935         estimate D2E/DX2                !
 ! D9    D(1,3,5,9)            -59.1421         estimate D2E/DX2                !
 ! D10   D(4,3,5,7)           -177.7128         estimate D2E/DX2                !
 ! D11   D(4,3,5,8)            -56.3825         estimate D2E/DX2                !
 ! D12   D(4,3,5,9)             63.0689         estimate D2E/DX2                !
 ! D13   D(6,3,5,7)            -61.5121         estimate D2E/DX2                !
 ! D14   D(6,3,5,8)             59.8182         estimate D2E/DX2                !
 ! D15   D(6,3,5,9)            179.2696         estimate D2E/DX2                !
 ! D16   D(1,3,6,10)           -28.5941         estimate D2E/DX2                !
 ! D17   D(1,3,6,12)           153.8859         estimate D2E/DX2                !
 ! D18   D(4,3,6,10)          -145.9808         estimate D2E/DX2                !
 ! D19   D(4,3,6,12)            36.4992         estimate D2E/DX2                !
 ! D20   D(5,3,6,10)            97.2085         estimate D2E/DX2                !
 ! D21   D(5,3,6,12)           -80.3115         estimate D2E/DX2                !
 ! D22   D(3,6,12,13)          176.6707         estimate D2E/DX2                !
 ! D23   D(10,6,12,13)          -0.9173         estimate D2E/DX2                !
 --------------------------------------------------------------------------------
 Trust Radius=3.00D-01 FncErr=1.00D-07 GrdErr=1.00D-06
 Number of steps in this run=     64 maximum allowed number of steps=    100.
 GradGradGradGradGradGradGradGradGradGradGradGradGradGradGradGradGradGrad

 Leave Link  103 at Sun Apr 17 21:38:12 2016, MaxMem=   33554432 cpu:       0.0
 (Enter c:\G09w01\l202.exe)
                          Input orientation:                          
 ---------------------------------------------------------------------
 Center     Atomic      Atomic             Coordinates (Angstroms)
 Number     Number       Type             X           Y           Z
 ---------------------------------------------------------------------
      1          7           0       -1.415151   -1.086156   -0.442365
      2          1           0       -1.192406   -1.658501    0.366399
      3          6           0       -0.654033    0.157924   -0.409981
      4          1           0       -0.622007    0.579969   -1.419011
      5          6           0       -1.197946    1.240022    0.551056
      6          6           0        0.775088   -0.168707   -0.010554
      7          1           0       -1.207825    0.870425    1.580108
      8          1           0       -0.597288    2.152211    0.507920
      9          1           0       -2.222529    1.495513    0.268083
     10          8           0        1.107609   -1.098412    0.680733
     11          1           0       -2.412134   -0.903080   -0.445618
     12          8           0        1.653842    0.746790   -0.480741
     13          1           0        2.529992    0.504102   -0.144397
 ---------------------------------------------------------------------
                    Distance matrix (angstroms):
                    1          2          3          4          5
     1  N    0.000000
     2  H    1.015526   0.000000
     3  C    1.458796   2.047440   0.000000
     4  H    2.087795   2.919553   1.094207   0.000000
     5  C    2.538733   2.904404   1.546082   2.156047   0.000000
     6  C    2.413570   2.496520   1.519413   2.120411   2.488531
     7  H    2.821629   2.805137   2.185131   3.069570   1.093457
     8  H    3.472602   3.859497   2.196120   2.487090   1.093041
     9  H    2.796714   3.319431   2.170045   2.499235   1.093215
    10  O    2.761488   2.388006   2.423101   3.196476   3.286438
    11  H    1.013658   1.648566   2.053757   2.520215   2.657160
    12  O    3.574896   3.821544   2.382867   2.467320   3.072552
    13  H    4.264019   4.335206   3.213781   3.400808   3.862998
                    6          7          8          9         10
     6  C    0.000000
     7  H    2.746260   0.000000
     8  H    2.745704   1.779134   0.000000
     9  H    3.439909   1.772504   1.769232   0.000000
    10  O    1.205321   3.169610   3.674655   4.241291   0.000000
    11  H    3.299541   2.949448   3.679362   2.509695   3.700731
    12  O    1.353299   3.528671   2.832004   4.018405   2.247702
    13  H    1.884217   4.132721   3.594671   4.872319   2.296098
                   11         12         13
    11  H    0.000000
    12  O    4.388105   0.000000
    13  H    5.147378   0.969362   0.000000
 Symmetry turned off by external request.
 Stoichiometry    C3H7NO2
 Framework group  C1[X(C3H7NO2)]
 Deg. of freedom    33
 Full point group                 C1      NOp   1
 Rotational constants (GHZ):      5.0381413      3.0398673      2.3262077
 Leave Link  202 at Sun Apr 17 21:38:12 2016, MaxMem=   33554432 cpu:       0.0
 (Enter c:\G09w01\l301.exe)
 Standard basis: 6-311++G(d,p) (5D, 7F)
 Ernie: Thresh=  0.10000D-02 Tol=  0.10000D-05 Strict=F.
 Integral buffers will be    262144 words long.
 Raffenetti 2 integral format.
 Two-electron integral symmetry is turned off.
   181 basis functions,   279 primitive gaussians,   187 cartesian basis functions
    24 alpha electrons       24 beta electrons
       nuclear repulsion energy       249.1895428095 Hartrees.
 IExCor=  402 DFT=T Ex+Corr=B3LYP ExCW=0 ScaHFX=  0.200000
 ScaDFX=  0.800000  0.720000  1.000000  0.810000 ScalE2=  1.000000  1.000000
 IRadAn=      0 IRanWt=     -1 IRanGd=            0 ICorTp=0
 NAtoms=   13 NActive=   13 NUniq=   13 SFac= 1.00D+00 NAtFMM=   50 NAOKFM=F Big=F
 ------------------------------------------------------------------------------
 Polarizable Continuum Model (PCM)
 =================================
 Model                : C-PCM.
 Atomic radii         : UFF (Universal Force Field).
 Polarization charges : Total charges.
 Charge compensation  : None.
 Solution method      : Matrix inversion.
 Cavity type          : Scaled VdW (van der Waals Surface) (Alpha=1.100).
 Cavity algorithm     : GePol (No added spheres)
                        Default sphere list used, NSphG=   13.
                        Lebedev-Laikov grids with approx.  5.0 points / Ang**2.
                        Smoothing algorithm: Karplus/York (Gamma=1.0000).
                        Polarization charges: spherical gaussians, with
                                              point-specific exponents (IZeta= 3).
                        Self-potential: point-specific (ISelfS= 7).
                        Self-field    : sphere-specific E.n sum rule (ISelfD= 2).
 1st derivatives      : Analytical E(r).r(x)/FMM algorithm (CHGder, D1EAlg=3).
                        Cavity 1st derivative terms included.
 Solvent              : Water, Eps=  78.355300 Eps(inf)=   1.777849
 ------------------------------------------------------------------------------
 Spheres list:
 ISph  on   Nord    Re0     Alpha      Xe            Ye            Ze
    1   N      1    1.830   1.100     -1.415151     -1.086156     -0.442365
    2   H      2    1.443   1.100     -1.192406     -1.658501      0.366399
    3   C      3    1.926   1.100     -0.654033      0.157924     -0.409981
    4   H      4    1.443   1.100     -0.622007      0.579969     -1.419011
    5   C      5    1.926   1.100     -1.197946      1.240022      0.551056
    6   C      6    1.926   1.100      0.775088     -0.168707     -0.010554
    7   H      7    1.443   1.100     -1.207825      0.870425      1.580108
    8   H      8    1.443   1.100     -0.597288      2.152211      0.507920
    9   H      9    1.443   1.100     -2.222529      1.495513      0.268083
   10   O     10    1.750   1.100      1.107609     -1.098412      0.680733
   11   H     11    1.443   1.100     -2.412134     -0.903080     -0.445618
   12   O     12    1.750   1.100      1.653842      0.746790     -0.480741
   13   H     13    1.443   1.100      2.529992      0.504102     -0.144397
 ------------------------------------------------------------------------------
 GePol: Number of generator spheres                  =      13
 GePol: Total number of spheres                      =      13
 GePol: Number of exposed spheres                    =      13 (100.00%)
 GePol: Number of points                             =    1106
 GePol: Average weight of points                     =       0.14
 GePol: Minimum weight of points                     =   0.33D-09
 GePol: Maximum weight of points                     =    0.20577
 GePol: Number of points with low weight             =      61
 GePol: Fraction of low-weight points (<1% of avg)   =       5.52%
 GePol: Cavity surface area                          =    150.104 Ang**2
 GePol: Cavity volume                                =    137.989 Ang**3
 Leave Link  301 at Sun Apr 17 21:38:13 2016, MaxMem=   33554432 cpu:       1.0
 (Enter c:\G09w01\l302.exe)
 NPDir=0 NMtPBC=     1 NCelOv=     1 NCel=       1 NClECP=     1 NCelD=      1
         NCelK=      1 NCelE2=     1 NClLst=     1 CellRange=     0.0.
 One-electron integrals computed using PRISM.
 NBasis=   181 RedAO= T  NBF=   181
 NBsUse=   181 1.00D-06 NBFU=   181
 Precomputing XC quadrature grid using
 IXCGrd= 2 IRadAn=           0 IRanWt=          -1 IRanGd=           0 AccXCQ= 0.00D+00.
 NRdTot=     842 NPtTot=      107058 NUsed=      110990 NTot=      111006
 NSgBfM=   187   187   187   187   187 NAtAll=    13    13.
 Leave Link  302 at Sun Apr 17 21:38:13 2016, MaxMem=   33554432 cpu:       0.0
 (Enter c:\G09w01\l303.exe)
 DipDrv:  MaxL=1.
 Leave Link  303 at Sun Apr 17 21:38:13 2016, MaxMem=   33554432 cpu:       0.0
 (Enter c:\G09w01\l401.exe)
 Harris functional with IExCor=  402 diagonalized for initial guess.
 ExpMin= 3.60D-02 ExpMax= 8.59D+03 ExpMxC= 1.30D+03 IAcc=3 IRadAn=         0 AccDes= 0.00D+00
 HarFok:  IExCor=  402 AccDes= 0.00D+00 IRadAn=         0 IDoV= 1
 ScaDFX=  1.000000  1.000000  1.000000  1.000000
 FoFCou: FMM=F IPFlag=           0 FMFlag=      100000 FMFlg1=           0
         NFxFlg=           0 DoJE=T BraDBF=F KetDBF=T FulRan=T
         Omega=  0.000000  0.000000  1.000000  0.000000  0.000000 ICntrl=     500 IOpCl=  0
         NMat0=    1 NMatS0=    1 NMatT0=    0 NMatD0=    1 NMtDS0=    0 NMtDT0=    0
         I1Cent=           4 NGrid=           0.
 Symmetry not used in FoFCou.
 Harris En= -323.880240607939    
 Leave Link  401 at Sun Apr 17 21:38:17 2016, MaxMem=   33554432 cpu:       3.0
 (Enter c:\G09w01\l502.exe)
 Closed shell SCF:
 Requested convergence on RMS density matrix=1.00D-08 within 128 cycles.
 Requested convergence on MAX density matrix=1.00D-06.
 Requested convergence on             energy=1.00D-06.
 No special actions if energy rises.
 Using DIIS extrapolation, IDIIS=  1040.
 Two-electron integral symmetry not used.
       110873 words used for storage of precomputed grid.
 IEnd=      236079 IEndB=      236079 NGot=    33554432 MDV=    33370150
 LenX=    33370150 LenY=    33334740
 Fock matrices will be formed incrementally for  20 cycles.

 Cycle   1  Pass 1  IDiag  1:
 FoFCou: FMM=F IPFlag=           0 FMFlag=      100000 FMFlg1=           0
         NFxFlg=           0 DoJE=F BraDBF=F KetDBF=F FulRan=T
         Omega=  0.000000  0.000000  1.000000  0.000000  0.000000 ICntrl=       0 IOpCl=  0
         NMat0=    1 NMatS0=    1 NMatT0=    0 NMatD0=    1 NMtDS0=    0 NMtDT0=    0
         I1Cent=           0 NGrid=           0.
 Symmetry not used in FoFCou.
 E= -323.656882512706    
 DIIS: error= 2.74D-02 at cycle   1 NSaved=   1.
 NSaved= 1 IEnMin= 1 EnMin= -323.656882512706     IErMin= 1 ErrMin= 2.74D-02
 ErrMax= 2.74D-02 EMaxC= 1.00D-01 BMatC= 2.77D-01 BMatP= 2.77D-01
 IDIUse=3 WtCom= 7.26D-01 WtEn= 2.74D-01
 Coeff-Com:  0.100D+01
 Coeff-En:   0.100D+01
 Coeff:      0.100D+01
 Gap=     0.136 Goal=   None    Shift=    0.000
 GapD=    0.136 DampG=1.000 DampE=0.500 DampFc=0.5000 IDamp=-1.
 Damping current iteration by 5.00D-01
 RMSDP=5.83D-03 MaxDP=1.35D-01              OVMax= 2.36D-01

 Cycle   2  Pass 1  IDiag  1:
 RMSU=  2.06D-03    CP:  9.90D-01
 E= -323.719965343001     Delta-E=       -0.063082830295 Rises=F Damp=T
 DIIS: error= 1.13D-02 at cycle   2 NSaved=   2.
 NSaved= 2 IEnMin= 2 EnMin= -323.719965343001     IErMin= 2 ErrMin= 1.13D-02
 ErrMax= 1.13D-02 EMaxC= 1.00D-01 BMatC= 2.72D-02 BMatP= 2.77D-01
 IDIUse=3 WtCom= 8.87D-01 WtEn= 1.13D-01
 Coeff-Com:  0.187D+00 0.813D+00
 Coeff-En:   0.326D+00 0.674D+00
 Coeff:      0.203D+00 0.797D+00
 Gap=     0.239 Goal=   None    Shift=    0.000
 RMSDP=1.44D-03 MaxDP=4.61D-02 DE=-6.31D-02 OVMax= 1.46D-01

 Cycle   3  Pass 1  IDiag  1:
 RMSU=  9.10D-04    CP:  9.77D-01  7.89D-01
 E= -323.852073314365     Delta-E=       -0.132107971364 Rises=F Damp=F
 DIIS: error= 7.66D-03 at cycle   3 NSaved=   3.
 NSaved= 3 IEnMin= 3 EnMin= -323.852073314365     IErMin= 3 ErrMin= 7.66D-03
 ErrMax= 7.66D-03 EMaxC= 1.00D-01 BMatC= 1.57D-02 BMatP= 2.72D-02
 IDIUse=3 WtCom= 9.23D-01 WtEn= 7.66D-02
 Coeff-Com:  0.654D-01 0.446D+00 0.489D+00
 Coeff-En:   0.000D+00 0.000D+00 0.100D+01
 Coeff:      0.604D-01 0.412D+00 0.528D+00
 Gap=     0.243 Goal=   None    Shift=    0.000
 RMSDP=8.77D-04 MaxDP=1.80D-02 DE=-1.32D-01 OVMax= 5.71D-02

 Cycle   4  Pass 1  IDiag  1:
 RMSU=  5.51D-04    CP:  9.76D-01  7.68D-01  6.90D-01
 E= -323.861109739088     Delta-E=       -0.009036424722 Rises=F Damp=F
 DIIS: error= 3.72D-03 at cycle   4 NSaved=   4.
 NSaved= 4 IEnMin= 4 EnMin= -323.861109739088     IErMin= 4 ErrMin= 3.72D-03
 ErrMax= 3.72D-03 EMaxC= 1.00D-01 BMatC= 4.13D-03 BMatP= 1.57D-02
 IDIUse=3 WtCom= 9.63D-01 WtEn= 3.72D-02
 Coeff-Com: -0.845D-03 0.979D-01 0.347D+00 0.556D+00
 Coeff-En:   0.000D+00 0.000D+00 0.234D+00 0.766D+00
 Coeff:     -0.814D-03 0.943D-01 0.343D+00 0.564D+00
 Gap=     0.236 Goal=   None    Shift=    0.000
 RMSDP=3.39D-04 MaxDP=6.37D-03 DE=-9.04D-03 OVMax= 2.15D-02

 Cycle   5  Pass 1  IDiag  1:
 RMSU=  1.11D-04    CP:  9.75D-01  7.79D-01  8.01D-01  6.64D-01
 E= -323.863968258885     Delta-E=       -0.002858519797 Rises=F Damp=F
 DIIS: error= 7.20D-04 at cycle   5 NSaved=   5.
 NSaved= 5 IEnMin= 5 EnMin= -323.863968258885     IErMin= 5 ErrMin= 7.20D-04
 ErrMax= 7.20D-04 EMaxC= 1.00D-01 BMatC= 2.08D-04 BMatP= 4.13D-03
 IDIUse=3 WtCom= 9.93D-01 WtEn= 7.20D-03
 Coeff-Com: -0.403D-02 0.245D-01 0.156D+00 0.311D+00 0.513D+00
 Coeff-En:   0.000D+00 0.000D+00 0.000D+00 0.000D+00 0.100D+01
 Coeff:     -0.400D-02 0.243D-01 0.155D+00 0.308D+00 0.516D+00
 Gap=     0.239 Goal=   None    Shift=    0.000
 RMSDP=1.21D-04 MaxDP=1.03D-02 DE=-2.86D-03 OVMax= 3.69D-03

 Cycle   6  Pass 1  IDiag  1:
 RMSU=  7.05D-05    CP:  9.72D-01  7.72D-01  8.10D-01  7.09D-01  7.78D-01
 E= -323.864125505613     Delta-E=       -0.000157246728 Rises=F Damp=F
 DIIS: error= 1.66D-04 at cycle   6 NSaved=   6.
 NSaved= 6 IEnMin= 6 EnMin= -323.864125505613     IErMin= 6 ErrMin= 1.66D-04
 ErrMax= 1.66D-04 EMaxC= 1.00D-01 BMatC= 1.02D-05 BMatP= 2.08D-04
 IDIUse=3 WtCom= 9.98D-01 WtEn= 1.66D-03
 Coeff-Com: -0.164D-02 0.208D-02 0.395D-01 0.887D-01 0.241D+00 0.630D+00
 Coeff-En:   0.000D+00 0.000D+00 0.000D+00 0.000D+00 0.000D+00 0.100D+01
 Coeff:     -0.163D-02 0.208D-02 0.395D-01 0.885D-01 0.241D+00 0.631D+00
 Gap=     0.239 Goal=   None    Shift=    0.000
 RMSDP=3.26D-05 MaxDP=2.54D-03 DE=-1.57D-04 OVMax= 5.91D-04

 Cycle   7  Pass 1  IDiag  1:
 RMSU=  1.06D-05    CP:  9.73D-01  7.74D-01  8.13D-01  7.04D-01  7.77D-01
                    CP:  7.39D-01
 E= -323.864133670112     Delta-E=       -0.000008164499 Rises=F Damp=F
 DIIS: error= 3.23D-05 at cycle   7 NSaved=   7.
 NSaved= 7 IEnMin= 7 EnMin= -323.864133670112     IErMin= 7 ErrMin= 3.23D-05
 ErrMax= 3.23D-05 EMaxC= 1.00D-01 BMatC= 4.93D-07 BMatP= 1.02D-05
 IDIUse=1 WtCom= 1.00D+00 WtEn= 0.00D+00
 Coeff-Com: -0.447D-03-0.104D-03 0.119D-01 0.278D-01 0.908D-01 0.286D+00
 Coeff-Com:  0.584D+00
 Coeff:     -0.447D-03-0.104D-03 0.119D-01 0.278D-01 0.908D-01 0.286D+00
 Coeff:      0.584D+00
 Gap=     0.239 Goal=   None    Shift=    0.000
 RMSDP=6.12D-06 MaxDP=4.49D-04 DE=-8.16D-06 OVMax= 1.72D-04

 Cycle   8  Pass 1  IDiag  1:
 RMSU=  3.08D-06    CP:  9.72D-01  7.74D-01  8.13D-01  7.07D-01  7.87D-01
                    CP:  7.63D-01  8.98D-01
 E= -323.864134021316     Delta-E=       -0.000000351204 Rises=F Damp=F
 DIIS: error= 1.21D-05 at cycle   8 NSaved=   8.
 NSaved= 8 IEnMin= 8 EnMin= -323.864134021316     IErMin= 8 ErrMin= 1.21D-05
 ErrMax= 1.21D-05 EMaxC= 1.00D-01 BMatC= 4.55D-08 BMatP= 4.93D-07
 IDIUse=1 WtCom= 1.00D+00 WtEn= 0.00D+00
 Coeff-Com:  0.415D-04-0.324D-03 0.588D-03 0.150D-02 0.115D-01 0.487D-01
 Coeff-Com:  0.255D+00 0.683D+00
 Coeff:      0.415D-04-0.324D-03 0.588D-03 0.150D-02 0.115D-01 0.487D-01
 Coeff:      0.255D+00 0.683D+00
 Gap=     0.239 Goal=   None    Shift=    0.000
 RMSDP=1.33D-06 MaxDP=5.05D-05 DE=-3.51D-07 OVMax= 7.92D-05

 Cycle   9  Pass 1  IDiag  1:
 RMSU=  7.52D-07    CP:  9.72D-01  7.74D-01  8.13D-01  7.07D-01  7.88D-01
                    CP:  7.59D-01  8.90D-01  8.57D-01
 E= -323.864134054123     Delta-E=       -0.000000032807 Rises=F Damp=F
 DIIS: error= 5.17D-06 at cycle   9 NSaved=   9.
 NSaved= 9 IEnMin= 9 EnMin= -323.864134054123     IErMin= 9 ErrMin= 5.17D-06
 ErrMax= 5.17D-06 EMaxC= 1.00D-01 BMatC= 6.20D-09 BMatP= 4.55D-08
 IDIUse=1 WtCom= 1.00D+00 WtEn= 0.00D+00
 Coeff-Com:  0.389D-04-0.180D-03-0.242D-03-0.531D-03 0.161D-02 0.975D-02
 Coeff-Com:  0.957D-01 0.361D+00 0.532D+00
 Coeff:      0.389D-04-0.180D-03-0.242D-03-0.531D-03 0.161D-02 0.975D-02
 Coeff:      0.957D-01 0.361D+00 0.532D+00
 Gap=     0.239 Goal=   None    Shift=    0.000
 RMSDP=5.99D-07 MaxDP=3.79D-05 DE=-3.28D-08 OVMax= 1.88D-05

 Cycle  10  Pass 1  IDiag  1:
 RMSU=  2.04D-07    CP:  9.72D-01  7.74D-01  8.13D-01  7.07D-01  7.89D-01
                    CP:  7.61D-01  9.09D-01  9.00D-01  8.16D-01
 E= -323.864134058967     Delta-E=       -0.000000004844 Rises=F Damp=F
 DIIS: error= 1.01D-06 at cycle  10 NSaved=  10.
 NSaved=10 IEnMin=10 EnMin= -323.864134058967     IErMin=10 ErrMin= 1.01D-06
 ErrMax= 1.01D-06 EMaxC= 1.00D-01 BMatC= 2.30D-10 BMatP= 6.20D-09
 IDIUse=1 WtCom= 1.00D+00 WtEn= 0.00D+00
 Coeff-Com:  0.112D-04-0.335D-04-0.185D-03-0.460D-03-0.713D-03-0.195D-02
 Coeff-Com:  0.105D-01 0.736D-01 0.197D+00 0.722D+00
 Coeff:      0.112D-04-0.335D-04-0.185D-03-0.460D-03-0.713D-03-0.195D-02
 Coeff:      0.105D-01 0.736D-01 0.197D+00 0.722D+00
 Gap=     0.239 Goal=   None    Shift=    0.000
 RMSDP=1.40D-07 MaxDP=3.59D-06 DE=-4.84D-09 OVMax= 3.84D-06

 Cycle  11  Pass 1  IDiag  1:
 RMSU=  7.00D-08    CP:  9.72D-01  7.74D-01  8.13D-01  7.07D-01  7.89D-01
                    CP:  7.61D-01  9.14D-01  9.09D-01  8.35D-01  9.45D-01
 E= -323.864134059171     Delta-E=       -0.000000000204 Rises=F Damp=F
 DIIS: error= 1.70D-07 at cycle  11 NSaved=  11.
 NSaved=11 IEnMin=11 EnMin= -323.864134059171     IErMin=11 ErrMin= 1.70D-07
 ErrMax= 1.70D-07 EMaxC= 1.00D-01 BMatC= 7.96D-12 BMatP= 2.30D-10
 IDIUse=1 WtCom= 1.00D+00 WtEn= 0.00D+00
 Coeff-Com: -0.639D-06 0.134D-05-0.285D-04-0.799D-04-0.220D-03-0.847D-03
 Coeff-Com: -0.177D-02 0.587D-03 0.150D-01 0.181D+00 0.807D+00
 Coeff:     -0.639D-06 0.134D-05-0.285D-04-0.799D-04-0.220D-03-0.847D-03
 Coeff:     -0.177D-02 0.587D-03 0.150D-01 0.181D+00 0.807D+00
 Gap=     0.239 Goal=   None    Shift=    0.000
 RMSDP=4.03D-08 MaxDP=1.09D-06 DE=-2.04D-10 OVMax= 8.61D-07

 Cycle  12  Pass 1  IDiag  1:
 RMSU=  1.28D-08    CP:  9.72D-01  7.74D-01  8.13D-01  7.07D-01  7.89D-01
                    CP:  7.61D-01  9.14D-01  9.15D-01  8.46D-01  9.99D-01
                    CP:  9.42D-01
 E= -323.864134059171     Delta-E=        0.000000000000 Rises=F Damp=F
 DIIS: error= 6.49D-08 at cycle  12 NSaved=  12.
 NSaved=12 IEnMin=11 EnMin= -323.864134059171     IErMin=12 ErrMin= 6.49D-08
 ErrMax= 6.49D-08 EMaxC= 1.00D-01 BMatC= 1.18D-12 BMatP= 7.96D-12
 IDIUse=1 WtCom= 1.00D+00 WtEn= 0.00D+00
 Coeff-Com: -0.102D-05 0.210D-05-0.229D-05-0.109D-04-0.552D-04-0.255D-03
 Coeff-Com: -0.124D-02-0.315D-02-0.276D-02 0.505D-01 0.379D+00 0.578D+00
 Coeff:     -0.102D-05 0.210D-05-0.229D-05-0.109D-04-0.552D-04-0.255D-03
 Coeff:     -0.124D-02-0.315D-02-0.276D-02 0.505D-01 0.379D+00 0.578D+00
 Gap=     0.239 Goal=   None    Shift=    0.000
 RMSDP=8.59D-09 MaxDP=4.88D-07 DE= 1.14D-13 OVMax= 2.21D-07

 Error on total polarization charges =  0.01210
 SCF Done:  E(RB3LYP) =  -323.864134059     A.U. after   12 cycles
             Convg  =    0.8594D-08             -V/T =  2.0039
 KE= 3.226214328662D+02 PE=-1.256949490325D+03 EE= 3.612743805903D+02
 Leave Link  502 at Sun Apr 17 21:40:14 2016, MaxMem=   33554432 cpu:     116.0
 (Enter c:\G09w01\l601.exe)
 Copying SCF densities to generalized density rwf, IOpCl= 0 IROHF=0.

 **********************************************************************

            Population analysis using the SCF density.

 **********************************************************************

 Alpha  occ. eigenvalues --  -19.18514 -19.13535 -14.30407 -10.32183 -10.22548
 Alpha  occ. eigenvalues --  -10.17260  -1.12900  -1.04249  -0.90333  -0.76147
 Alpha  occ. eigenvalues --   -0.68135  -0.60041  -0.54010  -0.51021  -0.48105
 Alpha  occ. eigenvalues --   -0.45919  -0.44805  -0.42205  -0.41462  -0.38618
 Alpha  occ. eigenvalues --   -0.37310  -0.34552  -0.30280  -0.25797
 Alpha virt. eigenvalues --   -0.01881  -0.00917   0.00641   0.01896   0.02116
 Alpha virt. eigenvalues --    0.04251   0.05104   0.05832   0.06670   0.07357
 Alpha virt. eigenvalues --    0.08729   0.09392   0.10629   0.11140   0.11733
 Alpha virt. eigenvalues --    0.12931   0.13274   0.13690   0.14029   0.15257
 Alpha virt. eigenvalues --    0.16450   0.16880   0.18152   0.19064   0.19460
 Alpha virt. eigenvalues --    0.20825   0.21773   0.22783   0.23276   0.24113
 Alpha virt. eigenvalues --    0.24443   0.25384   0.26405   0.27760   0.28551
 Alpha virt. eigenvalues --    0.29171   0.30273   0.32157   0.33768   0.34092
 Alpha virt. eigenvalues --    0.35025   0.36877   0.40147   0.45164   0.45752
 Alpha virt. eigenvalues --    0.48390   0.52680   0.54575   0.55996   0.57748
 Alpha virt. eigenvalues --    0.58745   0.61119   0.63839   0.64367   0.66242
 Alpha virt. eigenvalues --    0.67082   0.68646   0.71472   0.73437   0.74192
 Alpha virt. eigenvalues --    0.81107   0.83681   0.85054   0.87384   0.94570
 Alpha virt. eigenvalues --    0.98952   1.03366   1.04130   1.08823   1.13007
 Alpha virt. eigenvalues --    1.14438   1.15075   1.18610   1.19991   1.22492
 Alpha virt. eigenvalues --    1.26552   1.27843   1.32524   1.44268   1.44718
 Alpha virt. eigenvalues --    1.45254   1.51477   1.53008   1.54238   1.56453
 Alpha virt. eigenvalues --    1.58947   1.60746   1.61289   1.64786   1.66724
 Alpha virt. eigenvalues --    1.68582   1.71828   1.75316   1.77840   1.81827
 Alpha virt. eigenvalues --    1.86938   1.88725   1.93387   1.97815   1.98136
 Alpha virt. eigenvalues --    2.04441   2.07919   2.13201   2.14793   2.26642
 Alpha virt. eigenvalues --    2.27960   2.31892   2.46397   2.48271   2.52158
 Alpha virt. eigenvalues --    2.53730   2.55143   2.57182   2.61590   2.63688
 Alpha virt. eigenvalues --    2.65967   2.68409   2.71274   2.73987   2.81905
 Alpha virt. eigenvalues --    2.83075   2.86270   2.87335   2.90615   2.97794
 Alpha virt. eigenvalues --    3.01515   3.04795   3.09367   3.14141   3.16204
 Alpha virt. eigenvalues --    3.23657   3.27552   3.35979   3.55393   3.59082
 Alpha virt. eigenvalues --    3.65149   3.77248   3.79944   3.81696   4.04455
 Alpha virt. eigenvalues --    4.09239   4.10000   4.19498   4.74947   4.85542
 Alpha virt. eigenvalues --    4.95303   5.04390   5.16298   5.37899   5.58591
 Alpha virt. eigenvalues --    5.82936  23.79001  23.80258  23.95412  35.59441
 Alpha virt. eigenvalues --   49.86046  49.98565
          Condensed to atoms (all electrons):
              1          2          3          4          5          6
     1  N    6.759924   0.391985   0.003171  -0.060070  -0.034598  -0.022937
     2  H    0.391985   0.428782  -0.042067   0.006691   0.005966  -0.006549
     3  C    0.003171  -0.042067   6.627188   0.462374  -0.115687  -0.281904
     4  H   -0.060070   0.006691   0.462374   0.540731  -0.068499  -0.099504
     5  C   -0.034598   0.005966  -0.115687  -0.068499   5.452131   0.047355
     6  C   -0.022937  -0.006549  -0.281904  -0.099504   0.047355   5.491404
     7  H   -0.010745  -0.000578   0.007497   0.007777   0.392285  -0.025866
     8  H    0.020134  -0.001614  -0.087537  -0.010780   0.420849   0.013904
     9  H   -0.017513   0.001929   0.000006  -0.005204   0.392008  -0.010642
    10  O   -0.018243   0.011642  -0.047931   0.001763  -0.040827   0.485577
    11  H    0.393690  -0.043773  -0.073469  -0.004558   0.000622   0.026988
    12  O   -0.004078   0.002123  -0.149179   0.001625  -0.054201   0.265769
    13  H   -0.001095   0.000289  -0.012230   0.002749   0.001652   0.009524
              7          8          9         10         11         12
     1  N   -0.010745   0.020134  -0.017513  -0.018243   0.393690  -0.004078
     2  H   -0.000578  -0.001614   0.001929   0.011642  -0.043773   0.002123
     3  C    0.007497  -0.087537   0.000006  -0.047931  -0.073469  -0.149179
     4  H    0.007777  -0.010780  -0.005204   0.001763  -0.004558   0.001625
     5  C    0.392285   0.420849   0.392008  -0.040827   0.000622  -0.054201
     6  C   -0.025866   0.013904  -0.010642   0.485577   0.026988   0.265769
     7  H    0.542370  -0.035670  -0.040852  -0.000954   0.001063  -0.000741
     8  H   -0.035670   0.540611  -0.024194   0.001681  -0.000329   0.013616
     9  H   -0.040852  -0.024194   0.543560  -0.001985   0.002497  -0.004199
    10  O   -0.000954   0.001681  -0.001985   8.085306   0.002608  -0.130464
    11  H    0.001063  -0.000329   0.002497   0.002608   0.446464  -0.000487
    12  O   -0.000741   0.013616  -0.004199  -0.130464  -0.000487   7.979297
    13  H    0.000201  -0.001029  -0.000289  -0.002726   0.000096   0.270205
             13
     1  N   -0.001095
     2  H    0.000289
     3  C   -0.012230
     4  H    0.002749
     5  C    0.001652
     6  C    0.009524
     7  H    0.000201
     8  H   -0.001029
     9  H   -0.000289
    10  O   -0.002726
    11  H    0.000096
    12  O    0.270205
    13  H    0.414005
 Mulliken atomic charges:
              1
     1  N   -0.399625
     2  H    0.245174
     3  C   -0.290232
     4  H    0.224906
     5  C   -0.399057
     6  C    0.106881
     7  H    0.164211
     8  H    0.150360
     9  H    0.164880
    10  O   -0.345447
    11  H    0.248587
    12  O   -0.189287
    13  H    0.318649
 Sum of Mulliken atomic charges =   0.00000
 Mulliken charges with hydrogens summed into heavy atoms:
              1
     1  N    0.094136
     3  C   -0.065326
     5  C    0.080394
     6  C    0.106881
    10  O   -0.345447
    12  O    0.129362
 Sum of Mulliken charges with hydrogens summed into heavy atoms =   0.00000
 Electronic spatial extent (au):  <R**2>=            580.8770
 Charge=              0.0000 electrons
 Dipole moment (field-independent basis, Debye):
    X=             -0.9526    Y=              2.6847    Z=              0.4379  Tot=              2.8821
 Quadrupole moment (field-independent basis, Debye-Ang):
   XX=            -28.1749   YY=            -41.5528   ZZ=            -39.4538
   XY=              1.4063   XZ=             -1.7866   YZ=             -0.2096
 Traceless Quadrupole moment (field-independent basis, Debye-Ang):
   XX=              8.2189   YY=             -5.1590   ZZ=             -3.0599
   XY=              1.4063   XZ=             -1.7866   YZ=             -0.2096
 Octapole moment (field-independent basis, Debye-Ang**2):
  XXX=             15.4137  YYY=              3.9026  ZZZ=              1.3470  XYY=             -1.8810
  XXY=              3.8858  XXZ=             -0.9683  XZZ=              1.4619  YZZ=              3.4327
  YYZ=              3.7685  XYZ=              7.5569
 Hexadecapole moment (field-independent basis, Debye-Ang**3):
 XXXX=           -286.9984 YYYY=           -248.2574 ZZZZ=           -108.3803 XXXY=             23.2608
 XXXZ=              2.1549 YYYX=              5.3376 YYYZ=            -10.4668 ZZZX=             -3.1334
 ZZZY=             -7.4252 XXYY=           -109.6428 XXZZ=            -89.9759 YYZZ=            -65.7060
 XXYZ=             -0.1878 YYXZ=             -7.6868 ZZXY=             -1.6973
 N-N= 2.491895428095D+02 E-N=-1.256949478977D+03  KE= 3.226214328662D+02
 No NMR shielding tensors so no spin-rotation constants.
 Leave Link  601 at Sun Apr 17 21:40:15 2016, MaxMem=   33554432 cpu:       1.0
 (Enter c:\G09w01\l701.exe)
 Compute integral first derivatives.
 ... and contract with generalized density number  0.
 D1PCM: C-PCM CHGder 1st derivatives, ID1Alg=3 FixD1E=F DoIter=F DoCFld=F I1PDM=0.
 GePol: Maximum number of non-zero 1st derivatives   =     198
 Leave Link  701 at Sun Apr 17 21:40:18 2016, MaxMem=   33554432 cpu:       3.0
 (Enter c:\G09w01\l702.exe)
 L702 exits ... SP integral derivatives will be done elsewhere.
 Leave Link  702 at Sun Apr 17 21:40:18 2016, MaxMem=   33554432 cpu:       0.0
 (Enter c:\G09w01\l703.exe)
 Compute integral first derivatives, UseDBF=F ICtDFT=           0.
 Integral derivatives from FoFDir, PRISM(SPDF).
 Calling FoFJK, ICntrl=      2127 FMM=F ISym2X=0 I1Cent= 0 IOpClX= 0 NMat=1 NMatS=1 NMatT=0.
 FoFCou: FMM=F IPFlag=           0 FMFlag=      100000 FMFlg1=         800
         NFxFlg=           0 DoJE=F BraDBF=F KetDBF=F FulRan=T
         Omega=  0.000000  0.000000  1.000000  0.000000  0.000000 ICntrl=    2127 IOpCl=  0
         NMat0=    1 NMatS0=    1 NMatT0=    0 NMatD0=    1 NMtDS0=    0 NMtDT0=    0
         I1Cent=           0 NGrid=           0.
 Symmetry not used in FoFCou.
 Leave Link  703 at Sun Apr 17 21:40:46 2016, MaxMem=   33554432 cpu:      28.0
 (Enter c:\G09w01\l716.exe)
 Dipole        =-3.74796840D-01 1.05622915D+00 1.72287406D-01
 -------------------------------------------------------------------
 Center     Atomic                   Forces (Hartrees/Bohr)
 Number     Number              X              Y              Z
 -------------------------------------------------------------------
      1        7           0.000513058   -0.002758736   -0.002015251
      2        1          -0.001753371    0.001066116    0.001098938
      3        6           0.001301821    0.001335634   -0.000065000
      4        1          -0.000087047    0.000080650    0.000460326
      5        6          -0.000655100   -0.000115633    0.000412513
      6        6          -0.000501395    0.009510781   -0.005417293
      7        1           0.000065472    0.000065469   -0.000024992
      8        1           0.000023753   -0.000392730   -0.000104591
      9        1           0.000460103   -0.000414149   -0.000226505
     10        8           0.001901231   -0.005691153    0.003142338
     11        1          -0.000285205    0.000313428    0.000974809
     12        8          -0.003203888   -0.004199064    0.001771653
     13        1           0.002220567    0.001199387   -0.000006943
 -------------------------------------------------------------------
 Cartesian Forces:  Max     0.009510781 RMS     0.002411252
 Leave Link  716 at Sun Apr 17 21:40:46 2016, MaxMem=   33554432 cpu:       0.0
 (Enter c:\G09w01\l103.exe)

 GradGradGradGradGradGradGradGradGradGradGradGradGradGradGradGradGradGrad
 Berny optimization.
 Internal  Forces:  Max     0.006714178 RMS     0.001279020
 Search for a local minimum.
 Step number   1 out of a maximum of   64
 All quantities printed in internal units (Hartrees-Bohrs-Radians)
 RMS Force = .12790D-02 SwitMx=.10000D-02 MixMth= 1
 Mixed Optimization -- RFO/linear search
 Second derivative matrix not updated -- first step.
 ITU=  0
     Eigenvalues ---    0.00230   0.00509   0.00914   0.00947   0.02310
     Eigenvalues ---    0.04127   0.04309   0.05059   0.05405   0.05641
     Eigenvalues ---    0.06755   0.16000   0.16000   0.16000   0.16000
     Eigenvalues ---    0.16000   0.16000   0.17412   0.18530   0.24986
     Eigenvalues ---    0.25000   0.27987   0.30423   0.34331   0.34416
     Eigenvalues ---    0.34444   0.34464   0.37116   0.45060   0.45365
     Eigenvalues ---    0.53507   0.54325   1.02194
 RFO step:  Lambda=-5.02035762D-04 EMin= 2.30000000D-03
 Linear search not attempted -- first point.
 Iteration  1 RMS(Cart)=  0.02581927 RMS(Int)=  0.00062663
 Iteration  2 RMS(Cart)=  0.00056261 RMS(Int)=  0.00008021
 Iteration  3 RMS(Cart)=  0.00000022 RMS(Int)=  0.00008021
 Variable       Old X    -DE/DX   Delta X   Delta X   Delta X     New X
                                 (Linear)    (Quad)   (Total)
    R1        1.91907  -0.00010   0.00000  -0.00023  -0.00023   1.91883
    R2        2.75672   0.00198   0.00000   0.00531   0.00531   2.76204
    R3        1.91554   0.00033   0.00000   0.00072   0.00072   1.91626
    R4        2.06775  -0.00040   0.00000  -0.00115  -0.00115   2.06660
    R5        2.92167  -0.00053   0.00000  -0.00190  -0.00190   2.91977
    R6        2.87127   0.00008   0.00000   0.00026   0.00026   2.87153
    R7        2.06633  -0.00005   0.00000  -0.00014  -0.00014   2.06620
    R8        2.06555  -0.00031   0.00000  -0.00091  -0.00091   2.06464
    R9        2.06588  -0.00047   0.00000  -0.00135  -0.00135   2.06453
   R10        2.27773   0.00671   0.00000   0.00657   0.00657   2.28429
   R11        2.55737  -0.00327   0.00000  -0.00602  -0.00602   2.55135
   R12        1.83183   0.00170   0.00000   0.00318   0.00318   1.83501
    A1        1.92679  -0.00032   0.00000  -0.00976  -0.00994   1.91685
    A2        1.89661  -0.00066   0.00000  -0.01878  -0.01915   1.87746
    A3        1.93821  -0.00087   0.00000  -0.01309  -0.01327   1.92494
    A4        1.90047   0.00036   0.00000   0.00254   0.00253   1.90300
    A5        2.01211  -0.00147   0.00000  -0.00798  -0.00799   2.00413
    A6        1.88940   0.00111   0.00000   0.00781   0.00782   1.89722
    A7        1.88972   0.00030   0.00000  -0.00111  -0.00111   1.88861
    A8        1.87319  -0.00055   0.00000  -0.00303  -0.00304   1.87015
    A9        1.89436   0.00029   0.00000   0.00193   0.00195   1.89631
   A10        1.93007   0.00021   0.00000   0.00165   0.00166   1.93172
   A11        1.94576  -0.00028   0.00000  -0.00188  -0.00188   1.94388
   A12        1.90963  -0.00063   0.00000  -0.00411  -0.00411   1.90552
   A13        1.90095   0.00007   0.00000   0.00075   0.00075   1.90170
   A14        1.89033   0.00025   0.00000   0.00183   0.00183   1.89217
   A15        1.88575   0.00040   0.00000   0.00188   0.00187   1.88763
   A16        2.18471  -0.00022   0.00000  -0.00048  -0.00065   2.18405
   A17        1.95411   0.00035   0.00000   0.00184   0.00167   1.95577
   A18        2.14353  -0.00012   0.00000  -0.00003  -0.00021   2.14332
   A19        1.87233   0.00337   0.00000   0.02100   0.02100   1.89333
    D1        2.78989   0.00138   0.00000   0.06388   0.06379   2.85368
    D2       -1.36609   0.00102   0.00000   0.05883   0.05873  -1.30736
    D3        0.75870   0.00124   0.00000   0.06184   0.06173   0.82043
    D4       -1.38845  -0.00024   0.00000   0.02510   0.02521  -1.36324
    D5        0.73876  -0.00060   0.00000   0.02005   0.02015   0.75892
    D6        2.86355  -0.00038   0.00000   0.02306   0.02315   2.88670
    D7        1.04853   0.00032   0.00000   0.00397   0.00397   1.05249
    D8       -3.11704   0.00037   0.00000   0.00480   0.00479  -3.11226
    D9       -1.03222   0.00028   0.00000   0.00328   0.00328  -1.02895
   D10       -3.10167   0.00001   0.00000   0.00095   0.00095  -3.10072
   D11       -0.98406   0.00005   0.00000   0.00177   0.00177  -0.98229
   D12        1.10076  -0.00003   0.00000   0.00025   0.00026   1.10102
   D13       -1.07359  -0.00033   0.00000  -0.00220  -0.00219  -1.07578
   D14        1.04402  -0.00028   0.00000  -0.00137  -0.00137   1.04265
   D15        3.12885  -0.00037   0.00000  -0.00289  -0.00288   3.12596
   D16       -0.49906   0.00093   0.00000   0.06011   0.06010  -0.43896
   D17        2.68582   0.00059   0.00000   0.02624   0.02623   2.71205
   D18       -2.54785   0.00023   0.00000   0.05466   0.05466  -2.49318
   D19        0.63703  -0.00011   0.00000   0.02079   0.02080   0.65783
   D20        1.69661   0.00002   0.00000   0.05657   0.05658   1.75318
   D21       -1.40170  -0.00032   0.00000   0.02270   0.02271  -1.37899
   D22        3.08349  -0.00013   0.00000   0.00411   0.00411   3.08760
   D23       -0.01601  -0.00045   0.00000  -0.02881  -0.02882  -0.04483
         Item               Value     Threshold  Converged?
 Maximum Force            0.006714     0.000450     NO 
 RMS     Force            0.001279     0.000300     NO 
 Maximum Displacement     0.084201     0.001800     NO 
 RMS     Displacement     0.025836     0.001200     NO 
 Predicted change in Energy=-2.560230D-04
 GradGradGradGradGradGradGradGradGradGradGradGradGradGradGradGradGradGrad

 Leave Link  103 at Sun Apr 17 21:40:46 2016, MaxMem=   33554432 cpu:       0.0
 (Enter c:\G09w01\l202.exe)
                          Input orientation:                          
 ---------------------------------------------------------------------
 Center     Atomic      Atomic             Coordinates (Angstroms)
 Number     Number       Type             X           Y           Z
 ---------------------------------------------------------------------
      1          7           0       -1.417945   -1.091922   -0.434846
      2          1           0       -1.233709   -1.628332    0.407392
      3          6           0       -0.649368    0.151026   -0.409047
      4          1           0       -0.617931    0.571921   -1.417914
      5          6           0       -1.197153    1.232773    0.548564
      6          6           0        0.782070   -0.169365   -0.012348
      7          1           0       -1.206855    0.867193    1.578974
      8          1           0       -0.599227    2.145988    0.501528
      9          1           0       -2.221379    1.481347    0.260938
     10          8           0        1.125908   -1.129771    0.636176
     11          1           0       -2.411520   -0.890582   -0.458332
     12          8           0        1.652644    0.759924   -0.461051
     13          1           0        2.539676    0.531900   -0.138401
 ---------------------------------------------------------------------
                    Distance matrix (angstroms):
                    1          2          3          4          5
     1  N    0.000000
     2  H    1.015403   0.000000
     3  C    1.461608   2.043072   0.000000
     4  H    2.091606   2.924387   1.093596   0.000000
     5  C    2.533782   2.864819   1.545077   2.153893   0.000000
     6  C    2.422743   2.523516   1.519550   2.117810   2.489565
     7  H    2.817475   2.756986   2.185386   3.068444   1.093384
     8  H    3.468596   3.828436   2.193521   2.482396   1.092560
     9  H    2.784122   3.266044   2.165607   2.493320   1.092500
    10  O    2.760382   2.422539   2.425806   3.186850   3.314499
    11  H    1.014041   1.637373   2.047573   2.505329   2.645215
    12  O    3.585881   3.845647   2.381747   2.471122   3.060107
    13  H    4.288059   4.382115   3.223091   3.407233   3.863552
                    6          7          8          9         10
     6  C    0.000000
     7  H    2.750014   0.000000
     8  H    2.744614   1.779162   0.000000
     9  H    3.438058   1.773038   1.769466   0.000000
    10  O    1.208796   3.212244   3.704702   4.261815   0.000000
    11  H    3.304250   2.948153   3.664217   2.485869   3.710600
    12  O    1.350116   3.514249   2.814011   4.006218   2.247734
    13  H    1.896534   4.135008   3.587130   4.871198   2.315138
                   11         12         13
    11  H    0.000000
    12  O    4.386526   0.000000
    13  H    5.161410   0.971043   0.000000
 Symmetry turned off by external request.
 Stoichiometry    C3H7NO2
 Framework group  C1[X(C3H7NO2)]
 Deg. of freedom    33
 Full point group                 C1      NOp   1
 Rotational constants (GHZ):      5.0475467      3.0490270      2.3055003
 Leave Link  202 at Sun Apr 17 21:40:46 2016, MaxMem=   33554432 cpu:       0.0
 (Enter c:\G09w01\l301.exe)
 Standard basis: 6-311++G(d,p) (5D, 7F)
 Ernie: Thresh=  0.10000D-02 Tol=  0.10000D-05 Strict=F.
 Integral buffers will be    262144 words long.
 Raffenetti 2 integral format.
 Two-electron integral symmetry is turned off.
   181 basis functions,   279 primitive gaussians,   187 cartesian basis functions
    24 alpha electrons       24 beta electrons
       nuclear repulsion energy       249.0235971895 Hartrees.
 IExCor=  402 DFT=T Ex+Corr=B3LYP ExCW=0 ScaHFX=  0.200000
 ScaDFX=  0.800000  0.720000  1.000000  0.810000 ScalE2=  1.000000  1.000000
 IRadAn=      0 IRanWt=     -1 IRanGd=            0 ICorTp=0
 NAtoms=   13 NActive=   13 NUniq=   13 SFac= 1.00D+00 NAtFMM=   50 NAOKFM=F Big=F
 ------------------------------------------------------------------------------
 Polarizable Continuum Model (PCM)
 =================================
 Model                : C-PCM.
 Atomic radii         : UFF (Universal Force Field).
 Polarization charges : Total charges.
 Charge compensation  : None.
 Solution method      : Matrix inversion.
 Cavity type          : Scaled VdW (van der Waals Surface) (Alpha=1.100).
 Cavity algorithm     : GePol (No added spheres)
                        Default sphere list used, NSphG=   13.
                        Lebedev-Laikov grids with approx.  5.0 points / Ang**2.
                        Smoothing algorithm: Karplus/York (Gamma=1.0000).
                        Polarization charges: spherical gaussians, with
                                              point-specific exponents (IZeta= 3).
                        Self-potential: point-specific (ISelfS= 7).
                        Self-field    : sphere-specific E.n sum rule (ISelfD= 2).
 1st derivatives      : Analytical E(r).r(x)/FMM algorithm (CHGder, D1EAlg=3).
                        Cavity 1st derivative terms included.
 Solvent              : Water, Eps=  78.355300 Eps(inf)=   1.777849
 ------------------------------------------------------------------------------
 Spheres list:
 ISph  on   Nord    Re0     Alpha      Xe            Ye            Ze
    1   N      1    1.830   1.100     -1.417945     -1.091922     -0.434846
    2   H      2    1.443   1.100     -1.233709     -1.628332      0.407392
    3   C      3    1.926   1.100     -0.649368      0.151026     -0.409047
    4   H      4    1.443   1.100     -0.617931      0.571921     -1.417914
    5   C      5    1.926   1.100     -1.197153      1.232773      0.548564
    6   C      6    1.926   1.100      0.782070     -0.169365     -0.012348
    7   H      7    1.443   1.100     -1.206855      0.867193      1.578974
    8   H      8    1.443   1.100     -0.599227      2.145988      0.501528
    9   H      9    1.443   1.100     -2.221379      1.481347      0.260938
   10   O     10    1.750   1.100      1.125908     -1.129771      0.636176
   11   H     11    1.443   1.100     -2.411520     -0.890582     -0.458332
   12   O     12    1.750   1.100      1.652644      0.759924     -0.461051
   13   H     13    1.443   1.100      2.539676      0.531900     -0.138401
 ------------------------------------------------------------------------------
 GePol: Number of generator spheres                  =      13
 GePol: Total number of spheres                      =      13
 GePol: Number of exposed spheres                    =      13 (100.00%)
 GePol: Number of points                             =    1108
 GePol: Average weight of points                     =       0.14
 GePol: Minimum weight of points                     =   0.31D-09
 GePol: Maximum weight of points                     =    0.20577
 GePol: Number of points with low weight             =      74
 GePol: Fraction of low-weight points (<1% of avg)   =       6.68%
 GePol: Cavity surface area                          =    150.315 Ang**2
 GePol: Cavity volume                                =    138.167 Ang**3
 Leave Link  301 at Sun Apr 17 21:40:46 2016, MaxMem=   33554432 cpu:       0.0
 (Enter c:\G09w01\l302.exe)
 NPDir=0 NMtPBC=     1 NCelOv=     1 NCel=       1 NClECP=     1 NCelD=      1
         NCelK=      1 NCelE2=     1 NClLst=     1 CellRange=     0.0.
 One-electron integrals computed using PRISM.
 NBasis=   181 RedAO= T  NBF=   181
 NBsUse=   181 1.00D-06 NBFU=   181
 Precomputing XC quadrature grid using
 IXCGrd= 2 IRadAn=           0 IRanWt=          -1 IRanGd=           0 AccXCQ= 0.00D+00.
 NRdTot=     842 NPtTot=      107058 NUsed=      110990 NTot=      111006
 NSgBfM=   187   187   187   187   187 NAtAll=    13    13.
 Leave Link  302 at Sun Apr 17 21:40:46 2016, MaxMem=   33554432 cpu:       0.0
 (Enter c:\G09w01\l303.exe)
 DipDrv:  MaxL=1.
 Leave Link  303 at Sun Apr 17 21:40:46 2016, MaxMem=   33554432 cpu:       0.0
 (Enter c:\G09w01\l401.exe)
 Initial guess read from the read-write file.
 B after Tr=     0.000000    0.000000    0.000000
         Rot=    1.000000    0.000000    0.000000    0.000000 Ang=   0.00 deg.
 Guess basis will be translated and rotated to current coordinates.
 Generating alternative initial guess.
 Harris functional with IExCor=  402 diagonalized for initial guess.
 ExpMin= 3.60D-02 ExpMax= 8.59D+03 ExpMxC= 1.30D+03 IAcc=3 IRadAn=         0 AccDes= 0.00D+00
 HarFok:  IExCor=  402 AccDes= 0.00D+00 IRadAn=         0 IDoV= 1
 ScaDFX=  1.000000  1.000000  1.000000  1.000000
 FoFCou: FMM=F IPFlag=           0 FMFlag=      100000 FMFlg1=           0
         NFxFlg=           0 DoJE=T BraDBF=F KetDBF=T FulRan=T
         Omega=  0.000000  0.000000  1.000000  0.000000  0.000000 ICntrl=     500 IOpCl=  0
         NMat0=    1 NMatS0=    1 NMatT0=    0 NMatD0=    1 NMtDS0=    0 NMtDT0=    0
         I1Cent=           4 NGrid=           0.
 Symmetry not used in FoFCou.
 Harris En= -323.880666605749    
 Leave Link  401 at Sun Apr 17 21:40:50 2016, MaxMem=   33554432 cpu:       4.0
 (Enter c:\G09w01\l502.exe)
 Closed shell SCF:
 Requested convergence on RMS density matrix=1.00D-08 within 128 cycles.
 Requested convergence on MAX density matrix=1.00D-06.
 Requested convergence on             energy=1.00D-06.
 No special actions if energy rises.
 Using DIIS extrapolation, IDIIS=  1040.
 Two-electron integral symmetry not used.
       110873 words used for storage of precomputed grid.
 IEnd=      236079 IEndB=      236079 NGot=    33554432 MDV=    33370150
 LenX=    33370150 LenY=    33334740
 Fock matrices will be formed incrementally for  20 cycles.

 Cycle   1  Pass 1  IDiag  1:
 FoFCou: FMM=F IPFlag=           0 FMFlag=      100000 FMFlg1=           0
         NFxFlg=           0 DoJE=F BraDBF=F KetDBF=F FulRan=T
         Omega=  0.000000  0.000000  1.000000  0.000000  0.000000 ICntrl=       0 IOpCl=  0
         NMat0=    1 NMatS0=    1 NMatT0=    0 NMatD0=    1 NMtDS0=    0 NMtDT0=    0
         I1Cent=           0 NGrid=           0.
 Symmetry not used in FoFCou.
 E= -323.862169832793    
 DIIS: error= 2.49D-03 at cycle   1 NSaved=   1.
 NSaved= 1 IEnMin= 1 EnMin= -323.862169832793     IErMin= 1 ErrMin= 2.49D-03
 ErrMax= 2.49D-03 EMaxC= 1.00D-01 BMatC= 1.45D-03 BMatP= 1.45D-03
 IDIUse=3 WtCom= 9.75D-01 WtEn= 2.49D-02
 Coeff-Com:  0.100D+01
 Coeff-En:   0.100D+01
 Coeff:      0.100D+01
 Gap=     0.244 Goal=   None    Shift=    0.000
 GapD=    0.244 DampG=1.000 DampE=1.000 DampFc=1.0000 IDamp=-1.
 RMSDP=5.58D-04 MaxDP=1.60D-02              OVMax= 1.19D-02

 Cycle   2  Pass 1  IDiag  1:
 RMSU=  3.95D-04    CP:  9.99D-01
 E= -323.864381909235     Delta-E=       -0.002212076442 Rises=F Damp=F
 DIIS: error= 3.04D-04 at cycle   2 NSaved=   2.
 NSaved= 2 IEnMin= 2 EnMin= -323.864381909235     IErMin= 2 ErrMin= 3.04D-04
 ErrMax= 3.04D-04 EMaxC= 1.00D-01 BMatC= 3.71D-05 BMatP= 1.45D-03
 IDIUse=3 WtCom= 9.97D-01 WtEn= 3.04D-03
 Coeff-Com: -0.469D-01 0.105D+01
 Coeff-En:   0.000D+00 0.100D+01
 Coeff:     -0.468D-01 0.105D+01
 Gap=     0.241 Goal=   None    Shift=    0.000
 RMSDP=9.92D-05 MaxDP=4.56D-03 DE=-2.21D-03 OVMax= 2.89D-03

 Cycle   3  Pass 1  IDiag  1:
 RMSU=  6.43D-05    CP:  9.98D-01  9.36D-01
 E= -323.864383880387     Delta-E=       -0.000001971153 Rises=F Damp=F
 DIIS: error= 4.82D-04 at cycle   3 NSaved=   3.
 NSaved= 3 IEnMin= 3 EnMin= -323.864383880387     IErMin= 2 ErrMin= 3.04D-04
 ErrMax= 4.82D-04 EMaxC= 1.00D-01 BMatC= 5.04D-05 BMatP= 3.71D-05
 IDIUse=3 WtCom= 3.13D-01 WtEn= 6.87D-01
 Coeff-Com: -0.408D-01 0.593D+00 0.448D+00
 Coeff-En:   0.000D+00 0.479D+00 0.521D+00
 Coeff:     -0.128D-01 0.515D+00 0.498D+00
 Gap=     0.241 Goal=   None    Shift=    0.000
 RMSDP=4.89D-05 MaxDP=1.29D-03 DE=-1.97D-06 OVMax= 3.45D-03

 Cycle   4  Pass 1  IDiag  1:
 RMSU=  2.77D-05    CP:  9.98D-01  9.67D-01  7.41D-01
 E= -323.864407084866     Delta-E=       -0.000023204479 Rises=F Damp=F
 DIIS: error= 2.64D-04 at cycle   4 NSaved=   4.
 NSaved= 4 IEnMin= 4 EnMin= -323.864407084866     IErMin= 4 ErrMin= 2.64D-04
 ErrMax= 2.64D-04 EMaxC= 1.00D-01 BMatC= 1.68D-05 BMatP= 3.71D-05
 IDIUse=3 WtCom= 9.97D-01 WtEn= 2.64D-03
 Coeff-Com: -0.119D-01 0.142D+00 0.363D+00 0.507D+00
 Coeff-En:   0.000D+00 0.000D+00 0.299D+00 0.701D+00
 Coeff:     -0.119D-01 0.142D+00 0.363D+00 0.507D+00
 Gap=     0.241 Goal=   None    Shift=    0.000
 RMSDP=1.89D-05 MaxDP=5.54D-04 DE=-2.32D-05 OVMax= 1.33D-03

 Cycle   5  Pass 1  IDiag  1:
 RMSU=  5.32D-06    CP:  9.98D-01  9.68D-01  7.55D-01  5.59D-01
 E= -323.864418872173     Delta-E=       -0.000011787307 Rises=F Damp=F
 DIIS: error= 1.73D-05 at cycle   5 NSaved=   5.
 NSaved= 5 IEnMin= 5 EnMin= -323.864418872173     IErMin= 5 ErrMin= 1.73D-05
 ErrMax= 1.73D-05 EMaxC= 1.00D-01 BMatC= 1.21D-07 BMatP= 1.68D-05
 IDIUse=1 WtCom= 1.00D+00 WtEn= 0.00D+00
 Coeff-Com: -0.322D-02 0.314D-01 0.132D+00 0.209D+00 0.631D+00
 Coeff:     -0.322D-02 0.314D-01 0.132D+00 0.209D+00 0.631D+00
 Gap=     0.241 Goal=   None    Shift=    0.000
 RMSDP=2.23D-06 MaxDP=5.69D-05 DE=-1.18D-05 OVMax= 1.11D-04

 Cycle   6  Pass 1  IDiag  1:
 RMSU=  1.34D-06    CP:  9.98D-01  9.68D-01  7.63D-01  5.82D-01  9.48D-01
 E= -323.864418959208     Delta-E=       -0.000000087035 Rises=F Damp=F
 DIIS: error= 9.56D-06 at cycle   6 NSaved=   6.
 NSaved= 6 IEnMin= 6 EnMin= -323.864418959208     IErMin= 6 ErrMin= 9.56D-06
 ErrMax= 9.56D-06 EMaxC= 1.00D-01 BMatC= 2.34D-08 BMatP= 1.21D-07
 IDIUse=1 WtCom= 1.00D+00 WtEn= 0.00D+00
 Coeff-Com:  0.585D-03-0.131D-01 0.132D-02 0.174D-01 0.327D+00 0.666D+00
 Coeff:      0.585D-03-0.131D-01 0.132D-02 0.174D-01 0.327D+00 0.666D+00
 Gap=     0.241 Goal=   None    Shift=    0.000
 RMSDP=1.45D-06 MaxDP=6.54D-05 DE=-8.70D-08 OVMax= 4.28D-05

 Cycle   7  Pass 1  IDiag  1:
 RMSU=  4.24D-07    CP:  9.98D-01  9.67D-01  7.71D-01  5.89D-01  9.78D-01
                    CP:  7.37D-01
 E= -323.864418978105     Delta-E=       -0.000000018897 Rises=F Damp=F
 DIIS: error= 1.77D-06 at cycle   7 NSaved=   7.
 NSaved= 7 IEnMin= 7 EnMin= -323.864418978105     IErMin= 7 ErrMin= 1.77D-06
 ErrMax= 1.77D-06 EMaxC= 1.00D-01 BMatC= 1.14D-09 BMatP= 2.34D-08
 IDIUse=1 WtCom= 1.00D+00 WtEn= 0.00D+00
 Coeff-Com:  0.401D-03-0.769D-02-0.401D-02 0.169D-02 0.139D+00 0.328D+00
 Coeff-Com:  0.543D+00
 Coeff:      0.401D-03-0.769D-02-0.401D-02 0.169D-02 0.139D+00 0.328D+00
 Coeff:      0.543D+00
 Gap=     0.241 Goal=   None    Shift=    0.000
 RMSDP=2.96D-07 MaxDP=2.13D-05 DE=-1.89D-08 OVMax= 6.93D-06

 Cycle   8  Pass 1  IDiag  1:
 RMSU=  1.48D-07    CP:  9.98D-01  9.66D-01  7.73D-01  5.91D-01  9.83D-01
                    CP:  7.33D-01  7.96D-01
 E= -323.864418979031     Delta-E=       -0.000000000926 Rises=F Damp=F
 DIIS: error= 4.93D-07 at cycle   8 NSaved=   8.
 NSaved= 8 IEnMin= 8 EnMin= -323.864418979031     IErMin= 8 ErrMin= 4.93D-07
 ErrMax= 4.93D-07 EMaxC= 1.00D-01 BMatC= 5.69D-11 BMatP= 1.14D-09
 IDIUse=1 WtCom= 1.00D+00 WtEn= 0.00D+00
 Coeff-Com:  0.570D-04-0.802D-03-0.146D-02-0.135D-02 0.326D-02 0.217D-01
 Coeff-Com:  0.185D+00 0.794D+00
 Coeff:      0.570D-04-0.802D-03-0.146D-02-0.135D-02 0.326D-02 0.217D-01
 Coeff:      0.185D+00 0.794D+00
 Gap=     0.241 Goal=   None    Shift=    0.000
 RMSDP=6.45D-08 MaxDP=1.51D-06 DE=-9.26D-10 OVMax= 1.79D-06

 Cycle   9  Pass 1  IDiag  1:
 RMSU=  3.59D-08    CP:  9.98D-01  9.66D-01  7.73D-01  5.91D-01  9.83D-01
                    CP:  7.41D-01  8.40D-01  9.10D-01
 E= -323.864418979080     Delta-E=       -0.000000000049 Rises=F Damp=F
 DIIS: error= 1.20D-07 at cycle   9 NSaved=   9.
 NSaved= 9 IEnMin= 9 EnMin= -323.864418979080     IErMin= 9 ErrMin= 1.20D-07
 ErrMax= 1.20D-07 EMaxC= 1.00D-01 BMatC= 6.50D-12 BMatP= 5.69D-11
 IDIUse=1 WtCom= 1.00D+00 WtEn= 0.00D+00
 Coeff-Com:  0.364D-05 0.769D-04-0.421D-03-0.718D-03-0.616D-02-0.819D-02
 Coeff-Com:  0.556D-01 0.362D+00 0.598D+00
 Coeff:      0.364D-05 0.769D-04-0.421D-03-0.718D-03-0.616D-02-0.819D-02
 Coeff:      0.556D-01 0.362D+00 0.598D+00
 Gap=     0.241 Goal=   None    Shift=    0.000
 RMSDP=2.26D-08 MaxDP=1.69D-06 DE=-4.95D-11 OVMax= 5.26D-07

 Cycle  10  Pass 1  IDiag  1:
 RMSU=  1.03D-08    CP:  9.98D-01  9.66D-01  7.73D-01  5.91D-01  9.83D-01
                    CP:  7.40D-01  8.48D-01  9.44D-01  8.74D-01
 E= -323.864418979088     Delta-E=       -0.000000000008 Rises=F Damp=F
 DIIS: error= 5.24D-08 at cycle  10 NSaved=  10.
 NSaved=10 IEnMin=10 EnMin= -323.864418979088     IErMin=10 ErrMin= 5.24D-08
 ErrMax= 5.24D-08 EMaxC= 1.00D-01 BMatC= 9.38D-13 BMatP= 6.50D-12
 IDIUse=1 WtCom= 1.00D+00 WtEn= 0.00D+00
 Coeff-Com: -0.337D-05 0.118D-03-0.853D-04-0.283D-03-0.356D-02-0.640D-02
 Coeff-Com:  0.117D-01 0.116D+00 0.321D+00 0.562D+00
 Coeff:     -0.337D-05 0.118D-03-0.853D-04-0.283D-03-0.356D-02-0.640D-02
 Coeff:      0.117D-01 0.116D+00 0.321D+00 0.562D+00
 Gap=     0.241 Goal=   None    Shift=    0.000
 RMSDP=8.17D-09 MaxDP=6.03D-07 DE=-7.50D-12 OVMax= 1.59D-07

 Error on total polarization charges =  0.01206
 SCF Done:  E(RB3LYP) =  -323.864418979     A.U. after   10 cycles
             Convg  =    0.8168D-08             -V/T =  2.0039
 KE= 3.226108738435D+02 PE=-1.256621788278D+03 EE= 3.611228982657D+02
 Leave Link  502 at Sun Apr 17 21:42:35 2016, MaxMem=   33554432 cpu:     105.0
 (Enter c:\G09w01\l701.exe)
 Compute integral first derivatives.
 ... and contract with generalized density number  0.
 D1PCM: C-PCM CHGder 1st derivatives, ID1Alg=3 FixD1E=F DoIter=F DoCFld=F I1PDM=0.
 GePol: Maximum number of non-zero 1st derivatives   =     200
 Leave Link  701 at Sun Apr 17 21:42:38 2016, MaxMem=   33554432 cpu:       3.0
 (Enter c:\G09w01\l702.exe)
 L702 exits ... SP integral derivatives will be done elsewhere.
 Leave Link  702 at Sun Apr 17 21:42:38 2016, MaxMem=   33554432 cpu:       0.0
 (Enter c:\G09w01\l703.exe)
 Compute integral first derivatives, UseDBF=F ICtDFT=           0.
 Integral derivatives from FoFDir, PRISM(SPDF).
 Calling FoFJK, ICntrl=      2127 FMM=F ISym2X=0 I1Cent= 0 IOpClX= 0 NMat=1 NMatS=1 NMatT=0.
 FoFCou: FMM=F IPFlag=           0 FMFlag=      100000 FMFlg1=         800
         NFxFlg=           0 DoJE=F BraDBF=F KetDBF=F FulRan=T
         Omega=  0.000000  0.000000  1.000000  0.000000  0.000000 ICntrl=    2127 IOpCl=  0
         NMat0=    1 NMatS0=    1 NMatT0=    0 NMatD0=    1 NMtDS0=    0 NMtDT0=    0
         I1Cent=           0 NGrid=           0.
 Symmetry not used in FoFCou.
 Leave Link  703 at Sun Apr 17 21:43:08 2016, MaxMem=   33554432 cpu:      30.0
 (Enter c:\G09w01\l716.exe)
 Dipole        =-3.91355924D-01 1.13725670D+00 1.89581290D-01
 -------------------------------------------------------------------
 Center     Atomic                   Forces (Hartrees/Bohr)
 Number     Number              X              Y              Z
 -------------------------------------------------------------------
      1        7           0.001275180   -0.001385480   -0.001231400
      2        1          -0.000647058   -0.000015222    0.000949892
      3        6           0.000804297    0.001718683    0.001749134
      4        1          -0.000294750   -0.000300033   -0.000050830
      5        6          -0.000305195    0.000318839   -0.000025133
      6        6           0.001657758    0.000903745   -0.005210201
      7        1           0.000035232    0.000028672   -0.000020294
      8        1          -0.000002632   -0.000000495    0.000128165
      9        1           0.000031679    0.000011494    0.000049275
     10        8           0.000179830   -0.000949218    0.002067275
     11        1          -0.000625399    0.000496160   -0.000039973
     12        8          -0.001748543   -0.000865390    0.001650941
     13        1          -0.000360398    0.000038246   -0.000016851
 -------------------------------------------------------------------
 Cartesian Forces:  Max     0.005210201 RMS     0.001205344
 Leave Link  716 at Sun Apr 17 21:43:08 2016, MaxMem=   33554432 cpu:       0.0
 (Enter c:\G09w01\l103.exe)

 GradGradGradGradGradGradGradGradGradGradGradGradGradGradGradGradGradGrad
 Berny optimization.
 Using GEDIIS/GDIIS optimizer.
 Internal  Forces:  Max     0.002463947 RMS     0.000580800
 Search for a local minimum.
 Step number   2 out of a maximum of   64
 All quantities printed in internal units (Hartrees-Bohrs-Radians)
 RMS Force = .58080D-03 SwitMx=.10000D-02 MixMth= 2
 Mixed Optimization -- En-DIIS/RFO-DIIS
 Update second derivatives using D2CorX and points    1    2
 DE= -2.85D-04 DEPred=-2.56D-04 R= 1.11D+00
 SS=  1.41D+00  RLast= 1.63D-01 DXNew= 5.0454D-01 4.8972D-01
 Trust test= 1.11D+00 RLast= 1.63D-01 DXMaxT set to 4.90D-01
 ITU=  1  0
 Use linear search instead of GDIIS.
     Eigenvalues ---    0.00230   0.00364   0.00684   0.01639   0.02331
     Eigenvalues ---    0.03887   0.04414   0.05077   0.05416   0.05668
     Eigenvalues ---    0.06876   0.15623   0.16000   0.16000   0.16000
     Eigenvalues ---    0.16000   0.16661   0.17870   0.18657   0.24992
     Eigenvalues ---    0.25354   0.28177   0.30517   0.34317   0.34415
     Eigenvalues ---    0.34440   0.34464   0.36586   0.45178   0.45403
     Eigenvalues ---    0.52017   0.54252   0.98783
 RFO step:  Lambda=-5.83651314D-04 EMin= 2.30042623D-03
 Quartic linear search produced a step of  0.15765.
 Iteration  1 RMS(Cart)=  0.05351961 RMS(Int)=  0.00207802
 Iteration  2 RMS(Cart)=  0.00272868 RMS(Int)=  0.00048268
 Iteration  3 RMS(Cart)=  0.00000393 RMS(Int)=  0.00048267
 Iteration  4 RMS(Cart)=  0.00000000 RMS(Int)=  0.00048267
 Variable       Old X    -DE/DX   Delta X   Delta X   Delta X     New X
                                 (Linear)    (Quad)   (Total)
    R1        1.91883   0.00068  -0.00004   0.00146   0.00143   1.92026
    R2        2.76204   0.00078   0.00084   0.00771   0.00855   2.77059
    R3        1.91626   0.00071   0.00011   0.00247   0.00259   1.91885
    R4        2.06660  -0.00008  -0.00018  -0.00142  -0.00160   2.06500
    R5        2.91977   0.00041  -0.00030  -0.00028  -0.00058   2.91919
    R6        2.87153  -0.00047   0.00004  -0.00145  -0.00141   2.87013
    R7        2.06620  -0.00003  -0.00002  -0.00024  -0.00027   2.06593
    R8        2.06464  -0.00001  -0.00014  -0.00095  -0.00110   2.06354
    R9        2.06453  -0.00004  -0.00021  -0.00148  -0.00169   2.06283
   R10        2.28429   0.00191   0.00104   0.00874   0.00977   2.29407
   R11        2.55135  -0.00246  -0.00095  -0.01115  -0.01210   2.53925
   R12        1.83501  -0.00035   0.00050   0.00249   0.00299   1.83800
    A1        1.91685   0.00016  -0.00157  -0.01136  -0.01332   1.90354
    A2        1.87746  -0.00011  -0.00302  -0.02478  -0.02865   1.84881
    A3        1.92494  -0.00073  -0.00209  -0.02087  -0.02336   1.90159
    A4        1.90300  -0.00015   0.00040  -0.00243  -0.00204   1.90096
    A5        2.00413   0.00001  -0.00126  -0.00670  -0.00801   1.99612
    A6        1.89722  -0.00020   0.00123   0.00791   0.00916   1.90638
    A7        1.88861   0.00002  -0.00017  -0.00056  -0.00075   1.88786
    A8        1.87015  -0.00014  -0.00048  -0.00518  -0.00565   1.86451
    A9        1.89631   0.00046   0.00031   0.00688   0.00721   1.90351
   A10        1.93172  -0.00003   0.00026   0.00118   0.00144   1.93316
   A11        1.94388   0.00012  -0.00030  -0.00103  -0.00133   1.94255
   A12        1.90552   0.00005  -0.00065  -0.00362  -0.00427   1.90125
   A13        1.90170  -0.00008   0.00012  -0.00021  -0.00009   1.90161
   A14        1.89217  -0.00001   0.00029   0.00169   0.00198   1.89414
   A15        1.88763  -0.00004   0.00030   0.00210   0.00239   1.89002
   A16        2.18405   0.00002  -0.00010  -0.00112  -0.00314   2.18091
   A17        1.95577  -0.00057   0.00026  -0.00147  -0.00313   1.95264
   A18        2.14332   0.00054  -0.00003   0.00159  -0.00038   2.14294
   A19        1.89333  -0.00016   0.00331   0.02004   0.02335   1.91668
    D1        2.85368   0.00043   0.01006   0.09894   0.10875   2.96242
    D2       -1.30736   0.00034   0.00926   0.09175   0.10079  -1.20657
    D3        0.82043   0.00080   0.00973   0.10206   0.11154   0.93197
    D4       -1.36324  -0.00005   0.00397   0.04879   0.05300  -1.31024
    D5        0.75892  -0.00014   0.00318   0.04161   0.04505   0.80396
    D6        2.88670   0.00032   0.00365   0.05192   0.05580   2.94250
    D7        1.05249   0.00010   0.00063   0.00462   0.00523   1.05773
    D8       -3.11226   0.00005   0.00075   0.00446   0.00520  -3.10706
    D9       -1.02895   0.00011   0.00052   0.00409   0.00460  -1.02435
   D10       -3.10072  -0.00008   0.00015  -0.00348  -0.00333  -3.10405
   D11       -0.98229  -0.00013   0.00028  -0.00364  -0.00336  -0.98565
   D12        1.10102  -0.00007   0.00004  -0.00401  -0.00396   1.09706
   D13       -1.07578   0.00000  -0.00035  -0.00625  -0.00658  -1.08237
   D14        1.04265  -0.00005  -0.00022  -0.00641  -0.00662   1.03603
   D15        3.12596   0.00001  -0.00045  -0.00677  -0.00722   3.11875
   D16       -0.43896  -0.00076   0.00947  -0.00487   0.00465  -0.43431
   D17        2.71205   0.00058   0.00414   0.11282   0.11685   2.82890
   D18       -2.49318  -0.00039   0.00862  -0.00335   0.00535  -2.48784
   D19        0.65783   0.00095   0.00328   0.11434   0.11754   0.77537
   D20        1.75318  -0.00057   0.00892  -0.00347   0.00556   1.75874
   D21       -1.37899   0.00077   0.00358   0.11422   0.11775  -1.26124
   D22        3.08760  -0.00071   0.00065  -0.07234  -0.07171   3.01589
   D23       -0.04483   0.00059  -0.00454   0.04218   0.03766  -0.00717
         Item               Value     Threshold  Converged?
 Maximum Force            0.002464     0.000450     NO 
 RMS     Force            0.000581     0.000300     NO 
 Maximum Displacement     0.149250     0.001800     NO 
 RMS     Displacement     0.053058     0.001200     NO 
 Predicted change in Energy=-3.180300D-04
 GradGradGradGradGradGradGradGradGradGradGradGradGradGradGradGradGradGrad

 Leave Link  103 at Sun Apr 17 21:43:08 2016, MaxMem=   33554432 cpu:       0.0
 (Enter c:\G09w01\l202.exe)
                          Input orientation:                          
 ---------------------------------------------------------------------
 Center     Atomic      Atomic             Coordinates (Angstroms)
 Number     Number       Type             X           Y           Z
 ---------------------------------------------------------------------
      1          7           0       -1.433464   -1.107843   -0.423301
      2          1           0       -1.306142   -1.583607    0.465526
      3          6           0       -0.646643    0.129273   -0.421313
      4          1           0       -0.636037    0.543998   -1.432249
      5          6           0       -1.172782    1.217750    0.540306
      6          6           0        0.793526   -0.194501   -0.063742
      7          1           0       -1.165179    0.859078    1.573009
      8          1           0       -0.572189    2.127487    0.476369
      9          1           0       -2.200093    1.465532    0.266746
     10          8           0        1.150358   -1.161016    0.578316
     11          1           0       -2.419652   -0.871382   -0.474059
     12          8           0        1.631097    0.796451   -0.413103
     13          1           0        2.522411    0.610880   -0.070872
 ---------------------------------------------------------------------
                    Distance matrix (angstroms):
                    1          2          3          4          5
     1  N    0.000000
     2  H    1.016158   0.000000
     3  C    1.466134   2.038476   0.000000
     4  H    2.093429   2.928702   1.092749   0.000000
     5  C    2.530785   2.805526   1.544770   2.152442   0.000000
     6  C    2.433714   2.572615   1.518806   2.112307   2.495133
     7  H    2.815317   2.685721   2.186051   3.067709   1.093243
     8  H    3.466780   3.782992   2.191857   2.480793   1.091981
     9  H    2.772389   3.183694   2.161532   2.486378   1.091604
    10  O    2.771679   2.495135   2.427616   3.184439   3.325199
    11  H    1.015409   1.621724   2.036578   2.470366   2.635923
    12  O    3.608043   3.881242   2.373456   2.498457   2.991356
    13  H    4.327490   4.445370   3.224540   3.440002   3.794243
                    6          7          8          9         10
     6  C    0.000000
     7  H    2.761432   0.000000
     8  H    2.747458   1.778516   0.000000
     9  H    3.438994   1.773459   1.769801   0.000000
    10  O    1.213969   3.229846   3.713733   4.268647   0.000000
    11  H    3.309235   2.959506   3.648238   2.461333   3.733142
    12  O    1.343712   3.430411   2.723470   3.948148   2.246263
    13  H    1.907284   4.045030   3.489430   4.811077   2.333150
                   11         12         13
    11  H    0.000000
    12  O    4.381089   0.000000
    13  H    5.175292   0.972625   0.000000
 Symmetry turned off by external request.
 Stoichiometry    C3H7NO2
 Framework group  C1[X(C3H7NO2)]
 Deg. of freedom    33
 Full point group                 C1      NOp   1
 Rotational constants (GHZ):      5.0527840      3.0864362      2.2893036
 Leave Link  202 at Sun Apr 17 21:43:08 2016, MaxMem=   33554432 cpu:       0.0
 (Enter c:\G09w01\l301.exe)
 Standard basis: 6-311++G(d,p) (5D, 7F)
 Ernie: Thresh=  0.10000D-02 Tol=  0.10000D-05 Strict=F.
 Integral buffers will be    262144 words long.
 Raffenetti 2 integral format.
 Two-electron integral symmetry is turned off.
   181 basis functions,   279 primitive gaussians,   187 cartesian basis functions
    24 alpha electrons       24 beta electrons
       nuclear repulsion energy       249.0685831030 Hartrees.
 IExCor=  402 DFT=T Ex+Corr=B3LYP ExCW=0 ScaHFX=  0.200000
 ScaDFX=  0.800000  0.720000  1.000000  0.810000 ScalE2=  1.000000  1.000000
 IRadAn=      0 IRanWt=     -1 IRanGd=            0 ICorTp=0
 NAtoms=   13 NActive=   13 NUniq=   13 SFac= 1.00D+00 NAtFMM=   50 NAOKFM=F Big=F
 ------------------------------------------------------------------------------
 Polarizable Continuum Model (PCM)
 =================================
 Model                : C-PCM.
 Atomic radii         : UFF (Universal Force Field).
 Polarization charges : Total charges.
 Charge compensation  : None.
 Solution method      : Matrix inversion.
 Cavity type          : Scaled VdW (van der Waals Surface) (Alpha=1.100).
 Cavity algorithm     : GePol (No added spheres)
                        Default sphere list used, NSphG=   13.
                        Lebedev-Laikov grids with approx.  5.0 points / Ang**2.
                        Smoothing algorithm: Karplus/York (Gamma=1.0000).
                        Polarization charges: spherical gaussians, with
                                              point-specific exponents (IZeta= 3).
                        Self-potential: point-specific (ISelfS= 7).
                        Self-field    : sphere-specific E.n sum rule (ISelfD= 2).
 1st derivatives      : Analytical E(r).r(x)/FMM algorithm (CHGder, D1EAlg=3).
                        Cavity 1st derivative terms included.
 Solvent              : Water, Eps=  78.355300 Eps(inf)=   1.777849
 ------------------------------------------------------------------------------
 Spheres list:
 ISph  on   Nord    Re0     Alpha      Xe            Ye            Ze
    1   N      1    1.830   1.100     -1.433464     -1.107843     -0.423301
    2   H      2    1.443   1.100     -1.306142     -1.583607      0.465526
    3   C      3    1.926   1.100     -0.646643      0.129273     -0.421313
    4   H      4    1.443   1.100     -0.636037      0.543998     -1.432249
    5   C      5    1.926   1.100     -1.172782      1.217750      0.540306
    6   C      6    1.926   1.100      0.793526     -0.194501     -0.063742
    7   H      7    1.443   1.100     -1.165179      0.859078      1.573009
    8   H      8    1.443   1.100     -0.572189      2.127487      0.476369
    9   H      9    1.443   1.100     -2.200093      1.465532      0.266746
   10   O     10    1.750   1.100      1.150358     -1.161016      0.578316
   11   H     11    1.443   1.100     -2.419652     -0.871382     -0.474059
   12   O     12    1.750   1.100      1.631097      0.796451     -0.413103
   13   H     13    1.443   1.100      2.522411      0.610880     -0.070872
 ------------------------------------------------------------------------------
 GePol: Number of generator spheres                  =      13
 GePol: Total number of spheres                      =      13
 GePol: Number of exposed spheres                    =      13 (100.00%)
 GePol: Number of points                             =    1098
 GePol: Average weight of points                     =       0.14
[...]
   A13        1.89916   0.00000   0.00000  -0.00004  -0.00004   1.89913
   A14        1.89192   0.00000   0.00000  -0.00001  -0.00001   1.89191
   A15        1.89011   0.00000   0.00000  -0.00004  -0.00004   1.89007
   A16        2.18574  -0.00001   0.00000  -0.00010  -0.00010   2.18565
   A17        1.95290   0.00001   0.00000   0.00007   0.00007   1.95297
   A18        2.14390   0.00000   0.00000   0.00003   0.00003   2.14392
   A19        1.89385   0.00000   0.00000   0.00003   0.00003   1.89388
    D1        3.06125   0.00000   0.00000  -0.00014  -0.00014   3.06110
    D2       -1.10517   0.00000   0.00000  -0.00012  -0.00012  -1.10529
    D3        1.03220   0.00000   0.00000  -0.00014  -0.00014   1.03207
    D4       -1.17643   0.00000   0.00000  -0.00013  -0.00013  -1.17656
    D5        0.94033   0.00000   0.00000  -0.00010  -0.00010   0.94023
    D6        3.07771   0.00000   0.00000  -0.00012  -0.00012   3.07759
    D7        1.05196   0.00000   0.00000   0.00004   0.00004   1.05200
    D8       -3.11602   0.00000   0.00000   0.00001   0.00001  -3.11601
    D9       -1.02835   0.00000   0.00000   0.00001   0.00001  -1.02835
   D10       -3.11645   0.00000   0.00000   0.00001   0.00001  -3.11644
   D11       -1.00124   0.00000   0.00000  -0.00002  -0.00002  -1.00126
   D12        1.08642   0.00000   0.00000  -0.00002  -0.00002   1.08640
   D13       -1.08554   0.00000   0.00000   0.00009   0.00009  -1.08544
   D14        1.02967   0.00000   0.00000   0.00007   0.00007   1.02973
   D15        3.11733   0.00000   0.00000   0.00006   0.00006   3.11740
   D16       -0.44989   0.00000   0.00000  -0.00046  -0.00046  -0.45035
   D17        2.72955   0.00000   0.00000  -0.00046  -0.00046   2.72909
   D18       -2.48895   0.00000   0.00000  -0.00039  -0.00039  -2.48934
   D19        0.69049   0.00000   0.00000  -0.00040  -0.00040   0.69010
   D20        1.75099   0.00000   0.00000  -0.00048  -0.00048   1.75051
   D21       -1.35275   0.00000   0.00000  -0.00048  -0.00048  -1.35324
   D22        3.07444   0.00000   0.00000   0.00011   0.00011   3.07455
   D23       -0.03036   0.00000   0.00000   0.00011   0.00011  -0.03025
         Item               Value     Threshold  Converged?
 Maximum Force            0.000029     0.000450     YES
 RMS     Force            0.000006     0.000300     YES
 Maximum Displacement     0.000814     0.001800     YES
 RMS     Displacement     0.000226     0.001200     YES
 Predicted change in Energy=-6.502027D-09
 Optimization completed.
    -- Stationary point found.
                           ----------------------------
                           !   Optimized Parameters   !
                           ! (Angstroms and Degrees)  !
 --------------------------                            --------------------------
 ! Name  Definition              Value          Derivative Info.                !
 --------------------------------------------------------------------------------
 ! R1    R(1,2)                  1.0166         -DE/DX =    0.0                 !
 ! R2    R(1,3)                  1.4635         -DE/DX =    0.0                 !
 ! R3    R(1,11)                 1.0156         -DE/DX =    0.0                 !
 ! R4    R(3,4)                  1.0932         -DE/DX =    0.0                 !
 ! R5    R(3,5)                  1.5452         -DE/DX =    0.0                 !
 ! R6    R(3,6)                  1.5192         -DE/DX =    0.0                 !
 ! R7    R(5,7)                  1.0935         -DE/DX =    0.0                 !
 ! R8    R(5,8)                  1.0925         -DE/DX =    0.0                 !
 ! R9    R(5,9)                  1.0923         -DE/DX =    0.0                 !
 ! R10   R(6,10)                 1.21           -DE/DX =    0.0                 !
 ! R11   R(6,12)                 1.3474         -DE/DX =    0.0                 !
 ! R12   R(12,13)                0.9707         -DE/DX =    0.0                 !
 ! A1    A(2,1,3)              109.9509         -DE/DX =    0.0                 !
 ! A2    A(2,1,11)             106.9663         -DE/DX =    0.0                 !
 ! A3    A(3,1,11)             109.4133         -DE/DX =    0.0                 !
 ! A4    A(1,3,4)              108.165          -DE/DX =    0.0                 !
 ! A5    A(1,3,5)              115.0196         -DE/DX =    0.0                 !
 ! A6    A(1,3,6)              108.8796         -DE/DX =    0.0                 !
 ! A7    A(4,3,5)              108.3742         -DE/DX =    0.0                 !
 ! A8    A(4,3,6)              107.2679         -DE/DX =    0.0                 !
 ! A9    A(5,3,6)              108.8664         -DE/DX =    0.0                 !
 ! A10   A(3,5,7)              110.5823         -DE/DX =    0.0                 !
 ! A11   A(3,5,8)              111.4743         -DE/DX =    0.0                 !
 ! A12   A(3,5,9)              109.1971         -DE/DX =    0.0                 !
 ! A13   A(7,5,8)              108.814          -DE/DX =    0.0                 !
 ! A14   A(7,5,9)              108.399          -DE/DX =    0.0                 !
 ! A15   A(8,5,9)              108.2951         -DE/DX =    0.0                 !
 ! A16   A(3,6,10)             125.2339         -DE/DX =    0.0                 !
 ! A17   A(3,6,12)             111.8929         -DE/DX =    0.0                 !
 ! A18   A(10,6,12)            122.8362         -DE/DX =    0.0                 !
 ! A19   A(6,12,13)            108.5096         -DE/DX =    0.0                 !
 ! D1    D(2,1,3,4)            175.3966         -DE/DX =    0.0                 !
 ! D2    D(2,1,3,5)            -63.3217         -DE/DX =    0.0                 !
 ! D3    D(2,1,3,6)             59.1408         -DE/DX =    0.0                 !
 ! D4    D(11,1,3,4)           -67.4045         -DE/DX =    0.0                 !
 ! D5    D(11,1,3,5)            53.8772         -DE/DX =    0.0                 !
 ! D6    D(11,1,3,6)           176.3397         -DE/DX =    0.0                 !
 ! D7    D(1,3,5,7)             60.2729         -DE/DX =    0.0                 !
 ! D8    D(1,3,5,8)           -178.5348         -DE/DX =    0.0                 !
 ! D9    D(1,3,5,9)            -58.9203         -DE/DX =    0.0                 !
 ! D10   D(4,3,5,7)           -178.5593         -DE/DX =    0.0                 !
 ! D11   D(4,3,5,8)            -57.367          -DE/DX =    0.0                 !
 ! D12   D(4,3,5,9)             62.2475         -DE/DX =    0.0                 !
 ! D13   D(6,3,5,7)            -62.1967         -DE/DX =    0.0                 !
 ! D14   D(6,3,5,8)             58.9956         -DE/DX =    0.0                 !
 ! D15   D(6,3,5,9)            178.6101         -DE/DX =    0.0                 !
 ! D16   D(1,3,6,10)           -25.777          -DE/DX =    0.0                 !
 ! D17   D(1,3,6,12)           156.3918         -DE/DX =    0.0                 !
 ! D18   D(4,3,6,10)          -142.6064         -DE/DX =    0.0                 !
 ! D19   D(4,3,6,12)            39.5623         -DE/DX =    0.0                 !
 ! D20   D(5,3,6,10)           100.3243         -DE/DX =    0.0                 !
 ! D21   D(5,3,6,12)           -77.507          -DE/DX =    0.0                 !
 ! D22   D(3,6,12,13)          176.1523         -DE/DX =    0.0                 !
 ! D23   D(10,6,12,13)          -1.7395         -DE/DX =    0.0                 !
 --------------------------------------------------------------------------------
 GradGradGradGradGradGradGradGradGradGradGradGradGradGradGradGradGradGrad

 Leave Link  103 at Sun Apr 17 22:21:45 2016, MaxMem=   33554432 cpu:       0.0
 (Enter c:\G09w01\l9999.exe)
 1|1|UNPC-WIN-20150318OUM|Freq|RB3LYP|6-311++G(d,p)|C3H7N1O2|ADMINISTRA
 TOR|17-Apr-2016|0||#P Geom=AllCheck Guess=TCheck SCRF=Check GenChk RB3
 LYP/6-311++G(d,p) Freq||Ala-S-opt-freq-pcmc-w-6-311++g(d,p)||0,1|N,-1.
 4053548781,-1.1114991932,-0.4144226872|H,-1.3652274114,-1.555291374,0.
 499332927|C,-0.6425168978,0.1373285201,-0.3969713234|H,-0.6357678476,0
 .5467655195,-1.4105895254|C,-1.1843389193,1.2207485442,0.5623930668|C,
 0.7978508815,-0.1716282728,-0.0258205413|H,-1.1826631887,0.8567913431,
 1.5935444507|H,-0.5886037444,2.1350375322,0.5105095722|H,-2.2120759615
 ,1.4649496265,0.2846609859|O,1.1622127375,-1.1254420428,0.6235426357|H
 ,-2.3823647872,-0.9076504122,-0.6022231721|O,1.6454500453,0.7776154334
 ,-0.468574686|H,2.5386119717,0.5643747761,-0.1537497029||Version=IA32W
 -G09RevB.01|HF=-323.864672|RMSD=4.141e-009|RMSF=1.245e-005|ZeroPoint=0
 .1072459|Thermal=0.1141966|Dipole=-0.5029207,1.2047227,0.1054491|Dipol
 eDeriv=-0.4984389,-0.164007,0.0211684,-0.0874578,-0.8398995,-0.2247975
 ,0.0261754,-0.1802993,-0.4859632,0.2392529,-0.0746806,-0.0239853,-0.06
 94454,0.2886084,0.0090688,-0.0001164,0.1042003,0.0603994,0.1303053,0.3
 466431,-0.0069899,0.328364,0.5487993,0.2020506,-0.0649512,0.0335124,0.
 2908013,0.0353828,-0.0035359,0.0194669,-0.0462135,0.0016765,0.0345638,
 0.0104882,0.0701316,-0.101884,-0.001331,0.0272056,0.0000183,-0.0833683
 ,-0.038688,-0.1073654,-0.0758916,-0.0691811,0.0680076,1.7250084,0.1812
 386,-0.0756962,0.2396806,1.824769,-0.8694985,0.0445081,-0.939305,0.831
 4551,0.0854115,0.028393,-0.0044931,0.0115593,0.021864,0.1118637,0.0265
 45,0.0373403,-0.1354623,0.0255041,-0.1291797,0.0142986,-0.0952212,-0.1
 359737,-0.0390026,0.0243069,-0.0092294,0.07187,-0.1473075,0.0752004,-0
 .0469849,0.058714,0.0587611,-0.0137667,-0.0534867,-0.0186739,0.0511319
 ,-0.9062854,0.3134601,-0.2026011,0.0460134,-1.2544032,0.4519291,-0.108
 2915,0.5703908,-0.7623319,0.0515642,0.0155005,-0.016978,0.0828752,0.20
 77644,0.0797,0.0499976,0.0902347,0.3215889,-1.1046721,-0.6614852,0.366
 6332,-0.4468675,-1.023726,0.3046393,0.1798353,0.2469289,-0.5757168,0.3
 656057,0.0452469,-0.0438569,0.0613673,0.3404477,0.0606156,-0.0591191,0
 .0639497,0.3661042|Polar=70.5215635,-0.012726,72.1169714,0.4183773,-4.
 2229896,59.6831989|PG=C01 [X(C3H7N1O2)]|NImag=0||0.59493039,0.02127845
 ,0.37980357,0.10639284,-0.19856609,0.46720051,-0.05337140,-0.01180037,
 -0.01335754,0.05466294,-0.00538183,-0.09377821,0.13028653,0.00655015,0
 .11934923,-0.03174183,0.17362663,-0.34993844,0.02745036,-0.16757203,0.
 35584000,-0.11446239,-0.03694398,-0.00630383,0.00065391,-0.00043985,0.
 00253998,0.48302178,-0.06970514,-0.16985611,0.03272260,-0.00814946,-0.
 01994080,-0.00502518,0.02666302,0.46725784,-0.02874310,0.00115872,-0.0
 8362444,0.02197151,0.03189243,-0.00103802,0.01443096,-0.09041010,0.559
 23961,0.00029283,-0.01356281,0.01827804,-0.00261729,-0.00295085,0.0003
 8043,-0.05160148,0.00007353,-0.00586201,0.05636057,-0.00168794,-0.0200
 5312,0.02739501,-0.00438239,-0.00335713,0.00041755,-0.00078016,-0.0771
 2936,0.08571367,0.00266751,0.09856522,0.00156275,0.00102678,0.00432039
 ,-0.00008900,-0.00108547,0.00168437,-0.00539803,0.09023859,-0.27214331
 ,0.00169800,-0.09517316,0.29347421,0.00478801,-0.02141370,-0.01248125,
 0.00008762,0.00076611,-0.00070088,-0.09152987,0.02942600,0.02982983,0.
 00101880,0.00061966,0.00022684,0.55587046,0.00172476,-0.03688541,-0.02
 136337,0.00049535,0.00124726,-0.00098855,0.01504554,-0.10206703,-0.032
 24722,-0.00284906,0.00663731,0.00394165,0.03602878,0.50359452,-0.00200
 412,-0.00340872,0.00258548,-0.00043662,0.00122649,0.00203616,0.0184648
 8,-0.03138282,-0.11211843,0.01414045,-0.02357734,-0.02118722,0.0277143
 1,-0.06016818,0.51455758,-0.02591407,-0.00573704,-0.00451737,-0.000221
 03,-0.00014859,-0.00101728,-0.16678581,0.00803307,-0.02511730,0.003206
 18,0.00217556,0.00143202,-0.01287263,0.01949876,0.00884364,0.61362394,
 -0.03255780,0.00085731,-0.00954478,-0.00406290,0.00021063,0.00144653,0
 .01634950,-0.07302473,0.00072892,0.01081269,-0.00465949,0.00402013,0.0
 2524021,-0.00987798,0.00280374,-0.08864516,0.68687739,-0.00414265,0.00
 038271,-0.00042037,0.00336651,0.00096549,-0.00047242,-0.02179729,-0.00
 485386,-0.09449195,-0.03197200,0.00799553,-0.00874482,0.02405910,-0.00
 264236,0.00822862,0.11731766,-0.28867075,0.43040796,-0.00001036,-0.000
 41344,-0.00119166,0.00027421,0.00016448,-0.00029346,-0.00194641,-0.004
 48050,0.01266913,-0.00015591,0.00199299,0.00152912,-0.04712832,0.00085
 843,-0.00285719,0.00074378,-0.00100017,0.00174296,0.04685409,0.0002552
 8,0.00287804,0.00093677,-0.00006547,-0.00047607,0.00045529,0.00068585,
 0.00623532,-0.02361010,0.00190951,-0.00276844,-0.00315497,-0.00006127,
 -0.07846565,0.08604681,-0.00103861,0.00125608,-0.00084568,-0.00276037,
 0.08233602,-0.00051651,0.00032842,0.00239903,-0.00032851,-0.00078242,0
 .00003484,0.00209112,0.00679910,-0.02001071,0.00191567,-0.00324708,-0.
 00108820,-0.00275197,0.08436589,-0.27634742,-0.00234251,0.00124867,-0.
 00104283,0.00035438,-0.09039037,0.30180605,0.00061141,0.00239268,0.001
 53845,-0.00007068,-0.00009403,0.00003178,0.00621408,0.01006647,-0.0021
 4808,0.00044949,-0.00045477,-0.00030530,-0.12735376,-0.12227100,0.0082
 0610,-0.00017054,0.00053419,-0.00057647,0.00025269,0.00192360,0.000144
 25,0.13508662,0.00104833,-0.00550025,-0.00458413,-0.00009311,0.0007597
 6,-0.00022269,-0.01167930,-0.01537475,0.00442434,-0.00002348,0.0007353
 4,-0.00013429,-0.11984818,-0.22934512,0.01147909,-0.00183119,-0.001557
 69,0.00035613,-0.00489220,-0.00792083,0.00011855,0.13241427,0.24899124
 ,0.00103030,-0.00527797,-0.00187433,0.00001544,-0.00037083,-0.00029682
 ,-0.01271947,-0.01411042,0.00187815,-0.00046625,0.00075769,0.00047503,
 0.00900623,0.01286866,-0.04873515,-0.00037095,-0.00010060,0.00049357,0
 .01703677,0.02474815,0.00033437,-0.00982396,-0.01142257,0.04766871,0.0
 0194397,-0.00074246,-0.00020054,0.00000636,0.00001237,-0.00002140,-0.0
 1248282,0.00216284,-0.00251929,0.00047682,-0.00032460,0.00021251,-0.28
 037322,0.05400300,-0.06638802,0.00239353,0.00024319,0.00282322,0.00127
 737,-0.00042954,0.00011165,-0.01493080,0.00397335,-0.00429750,0.302916
 50,0.00011781,0.00254948,0.00106669,0.00011031,-0.00012226,0.00006010,
 0.02388532,-0.00874754,0.00359837,-0.00097228,0.00089657,0.00045864,0.
 05256241,-0.05731052,0.01663505,-0.00220881,-0.00310540,-0.00428808,0.
 01026562,-0.00300584,0.00241707,-0.02516628,0.00736104,-0.00763819,-0.
 06021432,0.06164886,0.00016275,0.00226071,0.00067333,-0.00004883,-0.00
 017480,-0.00005278,0.02308695,-0.00747032,0.00301399,-0.00019513,0.000
 94239,0.00129012,-0.06787683,0.01643787,-0.06420085,-0.00179572,-0.002
 90338,-0.00393810,-0.02855067,0.00561187,-0.00695606,0.00214117,-0.000
 61526,-0.00027689,0.07118172,-0.01373636,0.06830468,-0.00154080,0.0020
 0573,-0.00077281,0.00154231,0.00035902,-0.00062225,-0.00375736,0.03077
 031,-0.02531201,-0.00744237,0.00177008,-0.00188182,-0.00242122,-0.0018
 8477,-0.00361632,-0.18012330,0.14446959,-0.10462881,0.00017192,-0.0002
 8838,0.00071627,0.00015205,0.00045277,0.00009751,-0.00072844,0.0013141
 2,0.00145066,0.15736268,-0.00394060,0.00111595,-0.00085627,0.00203203,
 0.00036916,-0.00134928,0.01056420,-0.01427153,0.02095304,0.00411397,0.
 00050611,-0.00020592,-0.00078301,0.00297914,0.00247868,0.16311082,-0.4
 4647138,0.25464456,0.00005988,-0.00006918,-0.00085669,-0.00008158,0.00
 016499,0.00000826,0.00061289,-0.00038696,-0.00077236,-0.15500787,0.532
 30170,0.00241974,0.00048109,0.00016901,-0.00118865,-0.00076843,-0.0000
 8508,-0.01005951,0.02331754,0.00830291,0.00011093,-0.00002476,0.000178
 54,-0.00497553,-0.00122051,-0.00464083,-0.11816243,0.25063100,-0.25034
 878,-0.00025536,0.00018682,0.00085740,0.00025907,-0.00013729,0.0000218
 9,-0.00079147,0.00145930,0.00198353,0.11703189,-0.33289666,0.25424205,
 -0.39656271,0.06267770,-0.08420762,-0.00140870,0.00093443,0.00379058,-
 0.01949954,0.00713820,-0.00166165,0.00023137,0.00008179,0.00028379,0.0
 0206436,0.00150013,-0.00016675,0.00032846,-0.00289809,0.00111173,0.000
 03846,-0.00015743,-0.00009343,0.00013302,0.00040447,0.00045041,0.00031
 559,-0.00053206,-0.00052209,0.00005292,-0.00030577,0.00011833,0.415934
 59,0.08975639,-0.06146957,0.04325377,0.01805814,-0.00449774,-0.0007799
 1,-0.03751286,0.00212068,-0.00997339,0.00046756,0.00076069,0.00042631,
 -0.00091359,0.00192085,-0.00016725,-0.00065668,-0.00690816,0.00116696,
 0.00013210,-0.00009582,-0.00005640,0.00032211,0.00027399,0.00044104,0.
 00070680,-0.00094968,-0.00022838,0.00081383,0.00164686,-0.00003428,-0.
 06853354,0.06699904,-0.04426795,0.02935219,-0.04266271,-0.03645118,0.0
 0656628,-0.00785909,-0.00130730,-0.00348604,-0.00128903,0.00014948,-0.
 00014116,0.00000674,-0.00012949,0.00108109,-0.00009816,-0.00051803,0.0
 0122269,-0.00010857,-0.00006065,-0.00010008,-0.00001070,0.00028175,0.0
 0045955,0.00032948,0.00005701,-0.00053386,-0.00009293,0.00006337,-0.00
 055854,0.00052421,0.08117258,-0.03396037,0.05101743,-0.00971697,0.0018
 1225,-0.00304719,0.00071525,0.00025675,0.00021372,-0.02908584,-0.02682
 714,0.01100605,-0.00094194,-0.00182748,0.00090076,-0.00249353,-0.00239
 308,-0.00205478,-0.19273620,-0.06758437,0.02024014,-0.00034943,0.00002
 668,0.00072086,-0.00028506,-0.00013260,-0.00004857,-0.00096516,0.00081
 063,0.00107620,0.03081915,-0.02785578,0.01839704,-0.00155529,-0.002254
 32,0.00077729,0.61231917,-0.00018283,0.00027032,-0.00053422,0.00133588
 ,0.00022345,-0.00008716,-0.00361515,0.00614541,0.00430402,0.00018185,0
 .00017601,-0.00039417,-0.00108917,-0.00236019,-0.00173764,-0.05424881,
 -0.15315240,0.04744379,0.00000102,0.00005986,0.00006700,0.00042795,0.0
 0116900,-0.00001505,0.00003781,0.00099032,0.00058077,-0.03027795,-0.07
 734770,0.06077460,-0.00013192,0.00037248,0.00006053,0.00945762,0.28798
 973,-0.00118438,-0.00091903,0.00046664,-0.00079278,-0.00010176,0.00012
 721,-0.00311850,-0.00049498,0.01013000,0.00157132,-0.00060656,0.001256
 76,-0.00122932,-0.00011895,0.00015306,0.00931438,0.04350753,-0.0879904
 8,-0.00019464,0.00014972,0.00004743,0.00020726,0.00016728,-0.00004265,
 -0.00013407,0.00030648,0.00017314,0.01885305,0.06091756,-0.00673536,-0
 .00038815,-0.00037031,0.00025539,0.10441871,-0.15752191,0.15731283,-0.
 00098791,0.00044700,-0.00012951,-0.00025348,-0.00002816,-0.00000976,0.
 00126174,-0.00517119,0.00145595,0.00072293,0.00014975,-0.00017163,0.00
 034329,0.00024316,0.00015441,-0.04147231,-0.00090088,-0.00754409,-0.00
 002209,0.00000015,-0.00002128,-0.00008851,0.00020687,0.00009004,0.0001
 5030,0.00002753,-0.00011018,0.00591245,0.00748082,-0.00290406,-0.00007
 254,-0.00038595,0.00023312,-0.40572416,0.07810370,-0.12732288,0.440230
 27,-0.00072487,0.00006800,-0.00021250,-0.00002816,0.00001270,0.0000187
 1,-0.00222213,-0.00134741,0.00346729,0.00013187,-0.00030971,0.00003587
 ,-0.00053424,-0.00006717,-0.00022794,-0.03830333,0.00955581,-0.0116544
 5,0.00007215,0.00003651,-0.00001173,-0.00001362,0.00024328,0.00011183,
 -0.00004133,0.00018195,0.00006725,0.00550352,-0.00053716,-0.00176843,-
 0.00017791,-0.00017360,0.00003771,0.11651086,-0.06453628,0.05508493,-0
 .08017279,0.05687307,0.00103216,-0.00044544,0.00070590,-0.00011069,-0.
 00008147,0.00002008,0.00009003,0.00415590,0.00215124,0.00025106,-0.000
 45179,0.00047738,-0.00069104,0.00005396,-0.00023283,0.01693389,-0.0043
 8969,0.00842816,0.00007126,-0.00003424,-0.00002319,0.00004397,0.000111
 29,0.00002464,-0.00003381,0.00019478,0.00007883,-0.00137875,-0.0015063
 8,-0.00446948,0.00011228,0.00028218,-0.00001206,-0.15260024,0.04705942
 ,-0.07515397,0.13627987,-0.04494853,0.06800528||0.00001249,0.00001639,
 -0.00000032,-0.00000731,-0.00000247,0.00000651,0.00000196,-0.00002266,
 -0.00001697,0.00000392,0.00000214,0.00000109,-0.00000036,0.00002015,0.
 00001160,-0.00002316,-0.00004263,0.00002358,-0.00000081,0.00000172,-0.
 00000182,0.00000129,-0.00000313,-0.00000413,0.00000163,-0.00000073,-0.
 00000529,-0.00000226,0.00001606,-0.00000924,-0.00000446,-0.00000068,0.
 00000308,0.00001846,0.00001765,-0.00001126,-0.00000140,-0.00000179,0.0
 0000317|||@


 MISERY NO LONGER LOVES COMPANY.  NOWADAYS IT INSISTS ON IT.

                                              -- BAKER'S LAW
 Job cpu time:  0 days  0 hours 16 minutes 27.0 seconds.
 File lengths (MBytes):  RWF=     59 Int=      0 D2E=      0 Chk=      6 Scr=      1
 Normal termination of Gaussian 09 at Sun Apr 17 22:21:45 2016.
