 Entering Gaussian System, Link 0=g09
 Input=Ala-S-opt-freq-tsa3-6-31g.com
 Output=Ala-S-opt-freq-tsa3-6-31g.log
 Initial command:
 /usr/local/gau/g09/l1.exe "/tmp/Gau-7934.inp" -scrdir="/tmp/"
 Entering Link 1 = /usr/local/gau/g09/l1.exe PID=      7936.
  
 Copyright (c) 1988,1990,1992,1993,1995,1998,2003,2009,2013,
            Gaussian, Inc.  All Rights Reserved.
  
 This is part of the Gaussian(R) 09 program.  It is based on
 the Gaussian(R) 03 system (copyright 2003, Gaussian, Inc.),
 the Gaussian(R) 98 system (copyright 1998, Gaussian, Inc.),
 the Gaussian(R) 94 system (copyright 1995, Gaussian, Inc.),
 the Gaussian 92(TM) system (copyright 1992, Gaussian, Inc.),
 the Gaussian 90(TM) system (copyright 1990, Gaussian, Inc.),
 the Gaussian 88(TM) system (copyright 1988, Gaussian, Inc.),
 the Gaussian 86(TM) system (copyright 1986, Carnegie Mellon
 University), and the Gaussian 82(TM) system (copyright 1983,
 Carnegie Mellon University). Gaussian is a federally registered
 trademark of Gaussian, Inc.
  
 This software contains proprietary and confidential information,
 including trade secrets, belonging to Gaussian, Inc.
  
 This software is provided under written license and may be
 used, copied, transmitted, or stored only in accord with that
 written license.
  
 The following legend is applicable only to US Government
 contracts under FAR:
  
                    RESTRICTED RIGHTS LEGEND
  
 Use, reproduction and disclosure by the US Government is
 subject to restrictions as set forth in subparagraphs (a)
 and (c) of the Commercial Computer Software - Restricted
 Rights clause in FAR 52.227-19.
  
 Gaussian, Inc.
 340 Quinnipiac St., Bldg. 40, Wallingford CT 06492
  
  
 ---------------------------------------------------------------
 Warning -- This program may not be used in any manner that
 competes with the business of Gaussian, Inc. or will provide
 assistance to any competitor of Gaussian, Inc.  The licensee
 of this program is prohibited from giving any competitor of
 Gaussian, Inc. access to this program.  By using this program,
 the user acknowledges that Gaussian, Inc. is engaged in the
 business of creating and licensing software in the field of
 computational chemistry and represents and warrants to the
 licensee that it is not a competitor of Gaussian, Inc. and that
 it will not use this program in any manner prohibited above.
 ---------------------------------------------------------------
  

 Cite this work as:
 Gaussian 09, Revision D.01,
 M. J. Frisch, G. W. Trucks, H. B. Schlegel, G. E. Scuseria, 
 M. A. Robb, J. R. Cheeseman, G. Scalmani, V. Barone, B. Mennucci, 
 G. A. Petersson, H. Nakatsuji, M. Caricato, X. Li, H. P. Hratchian, 
 A. F. Izmaylov, J. Bloino, G. Zheng, J. L. Sonnenberg, M. Hada, 
 M. Ehara, K. Toyota, R. Fukuda, J. Hasegawa, M. Ishida, T. Nakajima, 
 Y. Honda, O. Kitao, H. Nakai, T. Vreven, J. A. Montgomery, Jr., 
 J. E. Peralta, F. Ogliaro, M. Bearpark, J. J. Heyd, E. Brothers, 
 K. N. Kudin, V. N. Staroverov, T. Keith, R. Kobayashi, J. Normand, 
 K. Raghavachari, A. Rendell, J. C. Burant, S. S. Iyengar, J. Tomasi, 
 M. Cossi, N. Rega, J. M. Millam, M. Klene, J. E. Knox, J. B. Cross, 
 V. Bakken, C. Adamo, J. Jaramillo, R. Gomperts, R. E. Stratmann, 
 O. Yazyev, A. J. Austin, R. Cammi, C. Pomelli, J. W. Ochterski, 
 R. L. Martin, K. Morokuma, V. G. Zakrzewski, G. A. Voth, 
 P. Salvador, J. J. Dannenberg, S. Dapprich, A. D. Daniels, 
 O. Farkas, J. B. Foresman, J. V. Ortiz, J. Cioslowski, 
 and D. J. Fox, Gaussian, Inc., Wallingford CT, 2013.
 
 ******************************************
 Gaussian 09:  ES64L-G09RevD.01 24-Apr-2013
                12-Apr-2016 
 ******************************************
 %chk=Ala-S-opt-freq-tsa3-6-31g.chk
 ------------------------------------------------
 #p opt=(calcfc,ts) freq rb3lyp/6-31g iop(1/11=1)
 ------------------------------------------------
 1/5=1,10=4,11=1,14=-1,18=20,26=3,38=1/1,3;
 2/9=110,12=2,17=6,18=5,40=1/2;
 3/5=1,6=6,11=2,16=1,25=1,30=1,71=2,74=-5,116=1,140=1/1,2,3;
 4//1;
 5/5=2,38=5/2;
 8/6=4,10=90,11=11/1;
 11/6=1,8=1,9=11,15=111,16=1/1,2,10;
 10/6=1,13=1/2;
 6/7=2,8=2,9=2,10=2,28=1/1;
 7/10=1,18=20,25=1/1,2,3,16;
 1/5=1,10=4,11=1,14=-1,18=20,26=3/3(2);
 2/9=110/2;
 99//99;
 2/9=110/2;
 3/5=1,6=6,11=2,16=1,25=1,30=1,71=1,74=-5,116=1/1,2,3;
 4/5=5,16=3,69=1/1;
 5/5=2,38=5/2;
 7//1,2,3,16;
 1/5=1,11=1,14=-1,18=20,26=3/3(-5);
 2/9=110/2;
 6/7=2,8=2,9=2,10=2,19=2,28=1/1;
 99/9=1/99;
 Leave Link    1 at Tue Apr 12 20:54:53 2016, MaxMem=           0 cpu:         0.0
 (Enter /usr/local/gau/g09/l101.exe)
 -------------------------
 Ala-S-opt-freq-tsa3-6-31g
 -------------------------
 Symbolic Z-matrix:
 Charge =  0 Multiplicity = 1
 N                     1.20779   1.16122   0.04974 
 H                     2.20502   1.23715  -0.03272 
 C                     0.58985  -0.0872    0.02451 
 H                    -1.98345  -1.56931  -0.68112 
 C                     1.49788  -1.28528   0.01683 
 C                    -0.75119  -0.1937    0.01803 
 H                     2.14339  -1.2882    0.90548 
 H                     0.91661  -2.20779   0.01385 
 H                     2.1531   -1.27823  -0.8657 
 O                    -1.56047   0.95751  -0.07327 
 H                     0.64544   1.989    -0.04698 
 O                    -1.44144  -1.40923   0.12214 
 H                    -0.18093   1.08533  -0.11055 
 
 Add virtual bond connecting atoms H13        and H11        Dist= 2.32D+00.
 NAtoms=     13 NQM=       13 NQMF=       0 NMMI=      0 NMMIF=      0
                NMic=       0 NMicF=      0.
                    Isotopes and Nuclear Properties:
 (Nuclear quadrupole moments (NQMom) in fm**2, nuclear magnetic moments (NMagM)
  in nuclear magnetons)

  Atom         1           2           3           4           5           6           7           8           9          10
 IAtWgt=          14           1          12           1          12          12           1           1           1          16
 AtmWgt=  14.0030740   1.0078250  12.0000000   1.0078250  12.0000000  12.0000000   1.0078250   1.0078250   1.0078250  15.9949146
 NucSpn=           2           1           0           1           0           0           1           1           1           0
 AtZEff=   0.0000000   0.0000000   0.0000000   0.0000000   0.0000000   0.0000000   0.0000000   0.0000000   0.0000000   0.0000000
 NQMom=    2.0440000   0.0000000   0.0000000   0.0000000   0.0000000   0.0000000   0.0000000   0.0000000   0.0000000   0.0000000
 NMagM=    0.4037610   2.7928460   0.0000000   2.7928460   0.0000000   0.0000000   2.7928460   2.7928460   2.7928460   0.0000000
 AtZNuc=   7.0000000   1.0000000   6.0000000   1.0000000   6.0000000   6.0000000   1.0000000   1.0000000   1.0000000   8.0000000

  Atom        11          12          13
 IAtWgt=           1          16           1
 AtmWgt=   1.0078250  15.9949146   1.0078250
 NucSpn=           1           0           1
 AtZEff=   0.0000000   0.0000000   0.0000000
 NQMom=    0.0000000   0.0000000   0.0000000
 NMagM=    2.7928460   0.0000000   2.7928460
 AtZNuc=   1.0000000   8.0000000   1.0000000
 Leave Link  101 at Tue Apr 12 20:54:53 2016, MaxMem=    33554432 cpu:         0.1
 (Enter /usr/local/gau/g09/l103.exe)

 GradGradGradGradGradGradGradGradGradGradGradGradGradGradGradGradGradGrad
 Berny optimization.
 Initialization pass.
                           ----------------------------
                           !    Initial Parameters    !
                           ! (Angstroms and Degrees)  !
 --------------------------                            --------------------------
 ! Name  Definition              Value          Derivative Info.                !
 --------------------------------------------------------------------------------
 ! R1    R(1,2)                  1.0035         calculate D2E/DX2 analytically  !
 ! R2    R(1,3)                  1.3932         calculate D2E/DX2 analytically  !
 ! R3    R(1,11)                 1.0054         calculate D2E/DX2 analytically  !
 ! R4    R(3,5)                  1.5033         calculate D2E/DX2 analytically  !
 ! R5    R(3,6)                  1.3453         calculate D2E/DX2 analytically  !
 ! R6    R(4,12)                 0.9822         calculate D2E/DX2 analytically  !
 ! R7    R(5,7)                  1.0984         calculate D2E/DX2 analytically  !
 ! R8    R(5,8)                  1.0904         calculate D2E/DX2 analytically  !
 ! R9    R(5,9)                  1.0992         calculate D2E/DX2 analytically  !
 ! R10   R(6,10)                 1.4102         calculate D2E/DX2 analytically  !
 ! R11   R(6,12)                 1.4017         calculate D2E/DX2 analytically  !
 ! R12   R(11,13)                1.2262         calculate D2E/DX2 analytically  !
 ! A1    A(2,1,3)              120.4689         calculate D2E/DX2 analytically  !
 ! A2    A(2,1,11)             119.0538         calculate D2E/DX2 analytically  !
 ! A3    A(3,1,11)             119.2059         calculate D2E/DX2 analytically  !
 ! A4    A(1,3,5)              116.508          calculate D2E/DX2 analytically  !
 ! A5    A(1,3,6)              120.8748         calculate D2E/DX2 analytically  !
 ! A6    A(5,3,6)              122.6153         calculate D2E/DX2 analytically  !
 ! A7    A(3,5,7)              110.6686         calculate D2E/DX2 analytically  !
 ! A8    A(3,5,8)              110.6273         calculate D2E/DX2 analytically  !
 ! A9    A(3,5,9)              111.0413         calculate D2E/DX2 analytically  !
 ! A10   A(7,5,8)              108.2564         calculate D2E/DX2 analytically  !
 ! A11   A(7,5,9)              107.4144         calculate D2E/DX2 analytically  !
 ! A12   A(8,5,9)              108.7238         calculate D2E/DX2 analytically  !
 ! A13   A(3,6,10)             120.5154         calculate D2E/DX2 analytically  !
 ! A14   A(3,6,12)             123.9986         calculate D2E/DX2 analytically  !
 ! A15   A(10,6,12)            115.4764         calculate D2E/DX2 analytically  !
 ! A16   A(1,11,13)             77.0062         calculate D2E/DX2 analytically  !
 ! A17   A(4,12,6)             110.6311         calculate D2E/DX2 analytically  !
 ! D1    D(2,1,3,5)              6.2762         calculate D2E/DX2 analytically  !
 ! D2    D(2,1,3,6)           -174.2135         calculate D2E/DX2 analytically  !
 ! D3    D(11,1,3,5)           173.2777         calculate D2E/DX2 analytically  !
 ! D4    D(11,1,3,6)            -7.2119         calculate D2E/DX2 analytically  !
 ! D5    D(2,1,11,13)          167.1366         calculate D2E/DX2 analytically  !
 ! D6    D(3,1,11,13)           -0.0504         calculate D2E/DX2 analytically  !
 ! D7    D(1,3,5,7)             59.0596         calculate D2E/DX2 analytically  !
 ! D8    D(1,3,5,8)            179.0434         calculate D2E/DX2 analytically  !
 ! D9    D(1,3,5,9)            -60.1392         calculate D2E/DX2 analytically  !
 ! D10   D(6,3,5,7)           -120.4415         calculate D2E/DX2 analytically  !
 ! D11   D(6,3,5,8)             -0.4577         calculate D2E/DX2 analytically  !
 ! D12   D(6,3,5,9)            120.3597         calculate D2E/DX2 analytically  !
 ! D13   D(1,3,6,10)             5.1914         calculate D2E/DX2 analytically  !
 ! D14   D(1,3,6,12)          -173.6291         calculate D2E/DX2 analytically  !
 ! D15   D(5,3,6,10)          -175.3288         calculate D2E/DX2 analytically  !
 ! D16   D(5,3,6,12)             5.8507         calculate D2E/DX2 analytically  !
 ! D17   D(3,6,12,4)          -118.4765         calculate D2E/DX2 analytically  !
 ! D18   D(10,6,12,4)           62.649          calculate D2E/DX2 analytically  !
 --------------------------------------------------------------------------------
 Trust Radius=3.00D-01 FncErr=1.00D-07 GrdErr=1.00D-06
 Number of steps in this run=     57 maximum allowed number of steps=    100.
 Search for a saddle point of order  1.
 GradGradGradGradGradGradGradGradGradGradGradGradGradGradGradGradGradGrad

 Leave Link  103 at Tue Apr 12 20:54:53 2016, MaxMem=    33554432 cpu:         0.0
 (Enter /usr/local/gau/g09/l202.exe)
                          Input orientation:                          
 ---------------------------------------------------------------------
 Center     Atomic      Atomic             Coordinates (Angstroms)
 Number     Number       Type             X           Y           Z
 ---------------------------------------------------------------------
      1          7           0        1.207792    1.161220    0.049742
      2          1           0        2.205022    1.237146   -0.032722
      3          6           0        0.589851   -0.087200    0.024508
      4          1           0       -1.983451   -1.569306   -0.681118
      5          6           0        1.497877   -1.285284    0.016828
      6          6           0       -0.751191   -0.193698    0.018031
      7          1           0        2.143394   -1.288196    0.905484
      8          1           0        0.916610   -2.207792    0.013848
      9          1           0        2.153102   -1.278234   -0.865701
     10          8           0       -1.560472    0.957509   -0.073271
     11          1           0        0.645444    1.989004   -0.046980
     12          8           0       -1.441439   -1.409229    0.122137
     13          1           0       -0.180930    1.085326   -0.110546
 ---------------------------------------------------------------------
                    Distance matrix (angstroms):
                    1          2          3          4          5
     1  N    0.000000
     2  H    1.003510   0.000000
     3  C    1.393212   2.089484   0.000000
     4  H    4.263093   5.083296   3.052283   0.000000
     5  C    2.463862   2.620145   1.503321   3.561944   0.000000
     6  C    2.382105   3.284674   1.345280   1.974733   2.499974
     7  H    2.758131   2.694695   2.152210   4.430257   1.098367
     8  H    3.381762   3.678284   2.145646   3.049753   1.090367
     9  H    2.771747   2.650224   2.157496   4.150887   1.099194
    10  O    2.778474   3.776081   2.392669   2.633094   3.793644
    11  H    1.005394   1.731409   2.078178   4.469317   3.384032
    12  O    3.692001   4.508210   2.425579   0.982151   2.943812
    13  H    1.400000   2.392043   1.409666   3.259096   2.907646
                    6          7          8          9         10
     6  C    0.000000
     7  H    3.219335   0.000000
     8  H    2.614986   1.773604   0.000000
     9  H    3.223681   1.771240   1.779493   0.000000
    10  O    1.410159   4.440695   4.020281   4.406487   0.000000
    11  H    2.592104   3.727074   4.205987   3.690282   2.435311
    12  O    1.401712   3.671418   2.491952   3.730108   2.377772
    13  H    1.406283   3.473961   3.473426   3.406520   1.385952
                   11         12         13
    11  H    0.000000
    12  O    3.991449   0.000000
    13  H    1.226201   2.804608   0.000000
 Stoichiometry    C3H7NO2
 Framework group  C1[X(C3H7NO2)]
 Deg. of freedom    33
 Full point group                 C1      NOp   1
 Largest Abelian subgroup         C1      NOp   1
 Largest concise Abelian subgroup C1      NOp   1
                         Standard orientation:                         
 ---------------------------------------------------------------------
 Center     Atomic      Atomic             Coordinates (Angstroms)
 Number     Number       Type             X           Y           Z
 ---------------------------------------------------------------------
      1          7           0        1.352877   -1.189978   -0.043791
      2          1           0        2.351418   -1.179462    0.055396
      3          6           0        0.626872   -0.001406   -0.008398
      4          1           0       -2.078458    1.235327    0.675787
      5          6           0        1.425406    1.271516    0.036201
      6          6           0       -0.718260   -0.013357   -0.024370
      7          1           0        2.082741    1.347721   -0.840448
      8          1           0        0.765048    2.139134    0.044437
      9          1           0        2.064029    1.305658    0.930193
     10          8           0       -1.424218   -1.232754    0.032571
     11          1           0        0.864232   -2.065653    0.028568
     12          8           0       -1.511241    1.138513   -0.120148
     13          1           0       -0.039583   -1.239466    0.092614
 ---------------------------------------------------------------------
 Rotational constants (GHZ):      4.8812845      3.3298751      2.0163727
 Leave Link  202 at Tue Apr 12 20:54:53 2016, MaxMem=    33554432 cpu:         0.0
 (Enter /usr/local/gau/g09/l301.exe)
 Standard basis: 6-31G (6D, 7F)
 Ernie: Thresh=  0.10000D-02 Tol=  0.10000D-05 Strict=F.
 There are    68 symmetry adapted cartesian basis functions of A   symmetry.
 There are    68 symmetry adapted basis functions of A   symmetry.
    68 basis functions,   160 primitive gaussians,    68 cartesian basis functions
    24 alpha electrons       24 beta electrons
       nuclear repulsion energy       248.1009675068 Hartrees.
 IExCor=  402 DFT=T Ex+Corr=B3LYP ExCW=0 ScaHFX=  0.200000
 ScaDFX=  0.800000  0.720000  1.000000  0.810000 ScalE2=  1.000000  1.000000
 IRadAn=      0 IRanWt=     -1 IRanGd=            0 ICorTp=0 IEmpDi=  4
 NAtoms=   13 NActive=   13 NUniq=   13 SFac= 1.00D+00 NAtFMM=   60 NAOKFM=F Big=F
 Integral buffers will be    131072 words long.
 Raffenetti 2 integral format.
 Two-electron integral symmetry is turned on.
 Leave Link  301 at Tue Apr 12 20:54:53 2016, MaxMem=    33554432 cpu:         0.0
 (Enter /usr/local/gau/g09/l302.exe)
 NPDir=0 NMtPBC=     1 NCelOv=     1 NCel=       1 NClECP=     1 NCelD=      1
         NCelK=      1 NCelE2=     1 NClLst=     1 CellRange=     0.0.
 One-electron integrals computed using PRISM.
 NBasis=    68 RedAO= T EigKep=  2.82D-03  NBF=    68
 NBsUse=    68 1.00D-06 EigRej= -1.00D+00 NBFU=    68
 Precomputing XC quadrature grid using
 IXCGrd= 4 IRadAn=           0 IRanWt=          -1 IRanGd=           0 AccXCQ= 0.00D+00.
 Generated NRdTot=       0 NPtTot=           0 NUsed=           0 NTot=          32
 NSgBfM=    68    68    68    68    68 MxSgAt=    13 MxSgA2=    13.
 Leave Link  302 at Tue Apr 12 20:54:54 2016, MaxMem=    33554432 cpu:         0.2
 (Enter /usr/local/gau/g09/l303.exe)
 DipDrv:  MaxL=1.
 Leave Link  303 at Tue Apr 12 20:54:54 2016, MaxMem=    33554432 cpu:         0.0
 (Enter /usr/local/gau/g09/l401.exe)
 ExpMin= 1.61D-01 ExpMax= 5.48D+03 ExpMxC= 8.25D+02 IAcc=1 IRadAn=         1 AccDes= 0.00D+00
 Harris functional with IExCor=  402 and IRadAn=       1 diagonalized for initial guess.
 HarFok:  IExCor=  402 AccDes= 0.00D+00 IRadAn=         1 IDoV= 1 UseB2=F ITyADJ=14
 ICtDFT=  3500011 ScaDFX=  1.000000  1.000000  1.000000  1.000000
 FoFCou: FMM=F IPFlag=           0 FMFlag=      100000 FMFlg1=           0
         NFxFlg=           0 DoJE=T BraDBF=F KetDBF=T FulRan=T
         wScrn=  0.000000 ICntrl=     500 IOpCl=  0 I1Cent=   200000004 NGrid=           0
         NMat0=    1 NMatS0=      1 NMatT0=    0 NMatD0=    1 NMtDS0=    0 NMtDT0=    0
 Petite list used in FoFCou.
 Harris En= -323.479404367981    
 JPrj=0 DoOrth=F DoCkMO=F.
 Leave Link  401 at Tue Apr 12 20:54:55 2016, MaxMem=    33554432 cpu:         0.5
 (Enter /usr/local/gau/g09/l502.exe)
 Closed shell SCF:
 Using DIIS extrapolation, IDIIS=  1040.
 Integral symmetry usage will be decided dynamically.
 Keep R1 ints in memory in canonical form, NReq=3676491.
 IVT=       33364 IEndB=       33364 NGot=    33554432 MDV=    30768038
 LenX=    30768038 LenY=    30762973
 Requested convergence on RMS density matrix=1.00D-08 within 128 cycles.
 Requested convergence on MAX density matrix=1.00D-06.
 Requested convergence on             energy=1.00D-06.
 No special actions if energy rises.
 FoFCou: FMM=F IPFlag=           0 FMFlag=           0 FMFlg1=           0
         NFxFlg=           0 DoJE=F BraDBF=F KetDBF=F FulRan=T
         wScrn=  0.000000 ICntrl=     600 IOpCl=  0 I1Cent=           0 NGrid=           0
         NMat0=    1 NMatS0=   2346 NMatT0=    0 NMatD0=    1 NMtDS0=    0 NMtDT0=    0
 Symmetry not used in FoFCou.
 Integral accuracy reduced to 1.0D-05 until final iterations.

 Cycle   1  Pass 0  IDiag  1:
 E= -323.228036156177    
 DIIS: error= 3.64D-02 at cycle   1 NSaved=   1.
 NSaved= 1 IEnMin= 1 EnMin= -323.228036156177     IErMin= 1 ErrMin= 3.64D-02
 ErrMax= 3.64D-02  0.00D+00 EMaxC= 1.00D-01 BMatC= 2.04D-01 BMatP= 2.04D-01
 IDIUse=3 WtCom= 6.36D-01 WtEn= 3.64D-01
 Coeff-Com:  0.100D+01
 Coeff-En:   0.100D+01
 Coeff:      0.100D+01
 Gap=     0.181 Goal=   None    Shift=    0.000
 GapD=    0.181 DampG=1.000 DampE=0.500 DampFc=0.5000 IDamp=-1.
 Damping current iteration by 5.00D-01
 RMSDP=1.89D-02 MaxDP=3.70D-01              OVMax= 1.97D-01

 Cycle   2  Pass 0  IDiag  1:
 E= -323.287113701231     Delta-E=       -0.059077545054 Rises=F Damp=T
 DIIS: error= 1.47D-02 at cycle   2 NSaved=   2.
 NSaved= 2 IEnMin= 2 EnMin= -323.287113701231     IErMin= 2 ErrMin= 1.47D-02
 ErrMax= 1.47D-02  0.00D+00 EMaxC= 1.00D-01 BMatC= 2.59D-02 BMatP= 2.04D-01
 IDIUse=3 WtCom= 8.53D-01 WtEn= 1.47D-01
 Coeff-Com:  0.211D+00 0.789D+00
 Coeff-En:   0.315D+00 0.685D+00
 Coeff:      0.226D+00 0.774D+00
 Gap=     0.202 Goal=   None    Shift=    0.000
 RMSDP=5.02D-03 MaxDP=9.60D-02 DE=-5.91D-02 OVMax= 1.48D-01

 Cycle   3  Pass 0  IDiag  1:
 E= -323.390417180207     Delta-E=       -0.103303478976 Rises=F Damp=F
 DIIS: error= 2.07D-02 at cycle   3 NSaved=   3.
 NSaved= 3 IEnMin= 3 EnMin= -323.390417180207     IErMin= 2 ErrMin= 1.47D-02
 ErrMax= 2.07D-02  0.00D+00 EMaxC= 1.00D-01 BMatC= 3.22D-02 BMatP= 2.59D-02
 IDIUse=2 WtCom= 0.00D+00 WtEn= 1.00D+00
 Coeff-En:   0.000D+00 0.000D+00 0.100D+01
 Coeff:      0.000D+00 0.000D+00 0.100D+01
 Gap=     0.212 Goal=   None    Shift=    0.000
 RMSDP=1.07D-02 MaxDP=1.44D-01 DE=-1.03D-01 OVMax= 2.40D-01

 Cycle   4  Pass 0  IDiag  1:
 E= -323.198198114045     Delta-E=        0.192219066162 Rises=F Damp=F
 DIIS: error= 7.40D-02 at cycle   4 NSaved=   4.
 NSaved= 4 IEnMin= 3 EnMin= -323.390417180207     IErMin= 2 ErrMin= 1.47D-02
 ErrMax= 7.40D-02  0.00D+00 EMaxC= 1.00D-01 BMatC= 2.53D-01 BMatP= 2.59D-02
 IDIUse=2 WtCom= 0.00D+00 WtEn= 1.00D+00
 Coeff-En:   0.000D+00 0.000D+00 0.826D+00 0.174D+00
 Coeff:      0.000D+00 0.000D+00 0.826D+00 0.174D+00
 Gap=     0.204 Goal=   None    Shift=    0.000
 RMSDP=5.94D-03 MaxDP=9.31D-02 DE= 1.92D-01 OVMax= 1.29D-01

 Cycle   5  Pass 0  IDiag  1:
 E= -323.401111554422     Delta-E=       -0.202913440377 Rises=F Damp=F
 DIIS: error= 1.96D-02 at cycle   5 NSaved=   5.
 NSaved= 5 IEnMin= 5 EnMin= -323.401111554422     IErMin= 2 ErrMin= 1.47D-02
 ErrMax= 1.96D-02  0.00D+00 EMaxC= 1.00D-01 BMatC= 2.09D-02 BMatP= 2.59D-02
 IDIUse=3 WtCom= 8.04D-01 WtEn= 1.96D-01
 Coeff-Com: -0.250D-02 0.276D-01 0.350D+00-0.898D-01 0.715D+00
 Coeff-En:   0.000D+00 0.000D+00 0.418D+00 0.000D+00 0.582D+00
 Coeff:     -0.201D-02 0.222D-01 0.363D+00-0.722D-01 0.689D+00
 Gap=     0.191 Goal=   None    Shift=    0.000
 RMSDP=2.26D-03 MaxDP=2.58D-02 DE=-2.03D-01 OVMax= 4.58D-02

 Cycle   6  Pass 0  IDiag  1:
 E= -323.419636111443     Delta-E=       -0.018524557021 Rises=F Damp=F
 DIIS: error= 8.18D-04 at cycle   6 NSaved=   6.
 NSaved= 6 IEnMin= 6 EnMin= -323.419636111443     IErMin= 6 ErrMin= 8.18D-04
 ErrMax= 8.18D-04  0.00D+00 EMaxC= 1.00D-01 BMatC= 2.76D-05 BMatP= 2.09D-02
 IDIUse=3 WtCom= 9.92D-01 WtEn= 8.18D-03
 Coeff-Com: -0.342D-02 0.649D-02 0.163D+00-0.455D-01 0.359D+00 0.520D+00
 Coeff-En:   0.000D+00 0.000D+00 0.000D+00 0.000D+00 0.000D+00 0.100D+01
 Coeff:     -0.339D-02 0.644D-02 0.161D+00-0.451D-01 0.356D+00 0.524D+00
 Gap=     0.189 Goal=   None    Shift=    0.000
 RMSDP=1.34D-04 MaxDP=1.90D-03 DE=-1.85D-02 OVMax= 3.40D-03

 Cycle   7  Pass 0  IDiag  1:
 E= -323.419655154193     Delta-E=       -0.000019042750 Rises=F Damp=F
 DIIS: error= 5.68D-04 at cycle   7 NSaved=   7.
 NSaved= 7 IEnMin= 7 EnMin= -323.419655154193     IErMin= 7 ErrMin= 5.68D-04
 ErrMax= 5.68D-04  0.00D+00 EMaxC= 1.00D-01 BMatC= 7.19D-06 BMatP= 2.76D-05
 IDIUse=3 WtCom= 9.94D-01 WtEn= 5.68D-03
 Coeff-Com: -0.122D-02 0.252D-02 0.462D-01-0.170D-01 0.112D+00 0.316D+00
 Coeff-Com:  0.542D+00
 Coeff-En:   0.000D+00 0.000D+00 0.000D+00 0.000D+00 0.000D+00 0.255D+00
 Coeff-En:   0.745D+00
 Coeff:     -0.121D-02 0.251D-02 0.460D-01-0.169D-01 0.112D+00 0.315D+00
 Coeff:      0.543D+00
 Gap=     0.189 Goal=   None    Shift=    0.000
 RMSDP=4.84D-05 MaxDP=7.73D-04 DE=-1.90D-05 OVMax= 1.65D-03

 Cycle   8  Pass 0  IDiag  1:
 E= -323.419662509096     Delta-E=       -0.000007354903 Rises=F Damp=F
 DIIS: error= 5.85D-05 at cycle   8 NSaved=   8.
 NSaved= 8 IEnMin= 8 EnMin= -323.419662509096     IErMin= 8 ErrMin= 5.85D-05
 ErrMax= 5.85D-05  0.00D+00 EMaxC= 1.00D-01 BMatC= 3.60D-07 BMatP= 7.19D-06
 IDIUse=1 WtCom= 1.00D+00 WtEn= 0.00D+00
 Coeff-Com: -0.340D-04-0.295D-03 0.374D-02-0.229D-02 0.103D-01 0.105D+00
 Coeff-Com:  0.268D+00 0.615D+00
 Coeff:     -0.340D-04-0.295D-03 0.374D-02-0.229D-02 0.103D-01 0.105D+00
 Coeff:      0.268D+00 0.615D+00
 Gap=     0.189 Goal=   None    Shift=    0.000
 RMSDP=1.05D-05 MaxDP=1.14D-04 DE=-7.35D-06 OVMax= 1.37D-04

 Cycle   9  Pass 0  IDiag  1:
 E= -323.419662833595     Delta-E=       -0.000000324499 Rises=F Damp=F
 DIIS: error= 1.13D-05 at cycle   9 NSaved=   9.
 NSaved= 9 IEnMin= 9 EnMin= -323.419662833595     IErMin= 9 ErrMin= 1.13D-05
 ErrMax= 1.13D-05  0.00D+00 EMaxC= 1.00D-01 BMatC= 1.49D-08 BMatP= 3.60D-07
 IDIUse=1 WtCom= 1.00D+00 WtEn= 0.00D+00
 Coeff-Com:  0.238D-04-0.543D-03 0.118D-04-0.173D-03 0.238D-03 0.354D-01
 Coeff-Com:  0.999D-01 0.250D+00 0.615D+00
 Coeff:      0.238D-04-0.543D-03 0.118D-04-0.173D-03 0.238D-03 0.354D-01
 Coeff:      0.999D-01 0.250D+00 0.615D+00
 Gap=     0.189 Goal=   None    Shift=    0.000
 RMSDP=2.73D-06 MaxDP=2.32D-05 DE=-3.24D-07 OVMax= 2.85D-05

 Initial convergence to 1.0D-05 achieved.  Increase integral accuracy.
 Cycle  10  Pass 1  IDiag  1:
 E= -323.419694971276     Delta-E=       -0.000032137681 Rises=F Damp=F
 DIIS: error= 9.11D-06 at cycle   1 NSaved=   1.
 NSaved= 1 IEnMin= 1 EnMin= -323.419694971276     IErMin= 1 ErrMin= 9.11D-06
 ErrMax= 9.11D-06  0.00D+00 EMaxC= 1.00D-01 BMatC= 9.26D-09 BMatP= 9.26D-09
 IDIUse=1 WtCom= 1.00D+00 WtEn= 0.00D+00
 Coeff-Com:  0.100D+01
 Coeff:      0.100D+01
 Gap=     0.189 Goal=   None    Shift=    0.000
 RMSDP=2.73D-06 MaxDP=2.32D-05 DE=-3.21D-05 OVMax= 6.95D-05

 Cycle  11  Pass 1  IDiag  1:
 E= -323.419694985317     Delta-E=       -0.000000014041 Rises=F Damp=F
 DIIS: error= 1.16D-05 at cycle   2 NSaved=   2.
 NSaved= 2 IEnMin= 2 EnMin= -323.419694985317     IErMin= 1 ErrMin= 9.11D-06
 ErrMax= 1.16D-05  0.00D+00 EMaxC= 1.00D-01 BMatC= 4.61D-09 BMatP= 9.26D-09
 IDIUse=1 WtCom= 1.00D+00 WtEn= 0.00D+00
 Coeff-Com:  0.366D+00 0.634D+00
 Coeff:      0.366D+00 0.634D+00
 Gap=     0.189 Goal=   None    Shift=    0.000
 RMSDP=2.45D-06 MaxDP=3.35D-05 DE=-1.40D-08 OVMax= 6.23D-05

 Cycle  12  Pass 1  IDiag  1:
 E= -323.419694984561     Delta-E=        0.000000000756 Rises=F Damp=F
 DIIS: error= 1.31D-05 at cycle   3 NSaved=   3.
 NSaved= 3 IEnMin= 2 EnMin= -323.419694985317     IErMin= 1 ErrMin= 9.11D-06
 ErrMax= 1.31D-05  0.00D+00 EMaxC= 1.00D-01 BMatC= 5.55D-09 BMatP= 4.61D-09
 IDIUse=1 WtCom= 1.00D+00 WtEn= 0.00D+00
 Coeff-Com:  0.489D-02 0.522D+00 0.473D+00
 Coeff:      0.489D-02 0.522D+00 0.473D+00
 Gap=     0.189 Goal=   None    Shift=    0.000
 RMSDP=1.35D-06 MaxDP=1.95D-05 DE= 7.56D-10 OVMax= 3.45D-05

 Cycle  13  Pass 1  IDiag  1:
 E= -323.419694989392     Delta-E=       -0.000000004831 Rises=F Damp=F
 DIIS: error= 2.65D-06 at cycle   4 NSaved=   4.
 NSaved= 4 IEnMin= 4 EnMin= -323.419694989392     IErMin= 4 ErrMin= 2.65D-06
 ErrMax= 2.65D-06  0.00D+00 EMaxC= 1.00D-01 BMatC= 4.01D-10 BMatP= 4.61D-09
 IDIUse=1 WtCom= 1.00D+00 WtEn= 0.00D+00
 Coeff-Com: -0.239D-01 0.305D+00 0.309D+00 0.410D+00
 Coeff:     -0.239D-01 0.305D+00 0.309D+00 0.410D+00
 Gap=     0.189 Goal=   None    Shift=    0.000
 RMSDP=3.16D-07 MaxDP=3.49D-06 DE=-4.83D-09 OVMax= 4.79D-06

 Cycle  14  Pass 1  IDiag  1:
 E= -323.419694989705     Delta-E=       -0.000000000313 Rises=F Damp=F
 DIIS: error= 5.17D-07 at cycle   5 NSaved=   5.
 NSaved= 5 IEnMin= 5 EnMin= -323.419694989705     IErMin= 5 ErrMin= 5.17D-07
 ErrMax= 5.17D-07  0.00D+00 EMaxC= 1.00D-01 BMatC= 1.30D-11 BMatP= 4.01D-10
 IDIUse=1 WtCom= 1.00D+00 WtEn= 0.00D+00
 Coeff-Com: -0.112D-01 0.109D+00 0.109D+00 0.212D+00 0.580D+00
 Coeff:     -0.112D-01 0.109D+00 0.109D+00 0.212D+00 0.580D+00
 Gap=     0.189 Goal=   None    Shift=    0.000
 RMSDP=7.17D-08 MaxDP=7.03D-07 DE=-3.13D-10 OVMax= 9.63D-07

 Cycle  15  Pass 1  IDiag  1:
 E= -323.419694989713     Delta-E=       -0.000000000008 Rises=F Damp=F
 DIIS: error= 1.56D-07 at cycle   6 NSaved=   6.
 NSaved= 6 IEnMin= 6 EnMin= -323.419694989713     IErMin= 6 ErrMin= 1.56D-07
 ErrMax= 1.56D-07  0.00D+00 EMaxC= 1.00D-01 BMatC= 1.54D-12 BMatP= 1.30D-11
 IDIUse=1 WtCom= 1.00D+00 WtEn= 0.00D+00
 Coeff-Com: -0.286D-02 0.179D-01 0.145D-01 0.634D-01 0.307D+00 0.600D+00
 Coeff:     -0.286D-02 0.179D-01 0.145D-01 0.634D-01 0.307D+00 0.600D+00
 Gap=     0.189 Goal=   None    Shift=    0.000
 RMSDP=1.97D-08 MaxDP=3.56D-07 DE=-7.96D-12 OVMax= 5.22D-07

 Cycle  16  Pass 1  IDiag  1:
 E= -323.419694989710     Delta-E=        0.000000000003 Rises=F Damp=F
 DIIS: error= 2.50D-08 at cycle   7 NSaved=   7.
 NSaved= 7 IEnMin= 6 EnMin= -323.419694989713     IErMin= 7 ErrMin= 2.50D-08
 ErrMax= 2.50D-08  0.00D+00 EMaxC= 1.00D-01 BMatC= 8.86D-14 BMatP= 1.54D-12
 IDIUse=1 WtCom= 1.00D+00 WtEn= 0.00D+00
 Coeff-Com: -0.764D-03 0.252D-02 0.448D-03 0.199D-01 0.126D+00 0.306D+00
 Coeff-Com:  0.546D+00
 Coeff:     -0.764D-03 0.252D-02 0.448D-03 0.199D-01 0.126D+00 0.306D+00
 Coeff:      0.546D+00
 Gap=     0.189 Goal=   None    Shift=    0.000
 RMSDP=6.53D-09 MaxDP=1.03D-07 DE= 2.96D-12 OVMax= 1.18D-07

 SCF Done:  E(RB3LYP) =  -323.419694990     A.U. after   16 cycles
            NFock= 16  Conv=0.65D-08     -V/T= 2.0046
 KE= 3.219392614617D+02 PE=-1.253585480010D+03 EE= 3.601255560518D+02
 Leave Link  502 at Tue Apr 12 20:55:25 2016, MaxMem=    33554432 cpu:        13.4
 (Enter /usr/local/gau/g09/l801.exe)
 DoSCS=F DFT=T ScalE2(SS,OS)=  1.000000  1.000000
 Range of M.O.s used for correlation:     1    68
 NBasis=    68 NAE=    24 NBE=    24 NFC=     0 NFV=     0
 NROrb=     68 NOA=    24 NOB=    24 NVA=    44 NVB=    44
 Leave Link  801 at Tue Apr 12 20:55:25 2016, MaxMem=    33554432 cpu:         0.0
 (Enter /usr/local/gau/g09/l1101.exe)
 Using compressed storage, NAtomX=    13.
 Will process     14 centers per pass.
 Leave Link 1101 at Tue Apr 12 20:55:25 2016, MaxMem=    33554432 cpu:         0.1
 (Enter /usr/local/gau/g09/l1102.exe)
 Symmetrizing basis deriv contribution to polar:
 IMax=3 JMax=2 DiffMx= 0.00D+00
 Leave Link 1102 at Tue Apr 12 20:55:25 2016, MaxMem=    33554432 cpu:         0.0
 (Enter /usr/local/gau/g09/l1110.exe)
 Forming Gx(P) for the SCF density, NAtomX=    13.
 Integral derivatives from FoFJK, PRISM(SPDF).
 Do as many integral derivatives as possible in FoFJK.
 G2DrvN: MDV=      33554224.
 G2DrvN: will do    14 centers at a time, making    1 passes.
 Calling FoFCou, ICntrl=  3107 FMM=F I1Cent=   0 AccDes= 0.00D+00.
 FoFJK:  IHMeth= 1 ICntrl=    3107 DoSepK=F KAlg= 0 I1Cent=   0 FoldK=F
 IRaf=         0 NMat=   1 IRICut=       1 DoRegI=T DoRafI=F ISym2E= 0.
 FoFCou: FMM=F IPFlag=           0 FMFlag=      100000 FMFlg1=           0
         NFxFlg=           0 DoJE=F BraDBF=F KetDBF=F FulRan=T
         wScrn=  0.000000 ICntrl=    3107 IOpCl=  0 I1Cent=           0 NGrid=           0
         NMat0=    1 NMatS0=      1 NMatT0=    0 NMatD0=    1 NMtDS0=    0 NMtDT0=    0
 Symmetry not used in FoFCou.
 End of G2Drv F.D. properties file   721 does not exist.
 End of G2Drv F.D. properties file   722 does not exist.
 End of G2Drv F.D. properties file   788 does not exist.
 Leave Link 1110 at Tue Apr 12 20:56:27 2016, MaxMem=    33554432 cpu:        28.7
 (Enter /usr/local/gau/g09/l1002.exe)
 Minotr:  Closed shell wavefunction.
          IDoAtm=1111111111111
          Direct CPHF calculation.
          Differentiating once with respect to nuclear coordinates.
          Requested convergence is 1.0D-08 RMS, and 1.0D-07 maximum.
          Secondary convergence is 1.0D-12 RMS, and 1.0D-12 maximum.
          NewPWx=T KeepS1=F KeepF1=F KeepIn=T MapXYZ=F SortEE=F KeepMc=T.
          MDV=      33554230 using IRadAn=       2.
 Generate precomputed XC quadrature information.
 Keep R1 ints in memory in canonical form, NReq=3645290.
 FoFCou: FMM=F IPFlag=           0 FMFlag=           0 FMFlg1=           0
         NFxFlg=           0 DoJE=F BraDBF=F KetDBF=F FulRan=T
         wScrn=  0.000000 ICntrl=     600 IOpCl=  0 I1Cent=           0 NGrid=           0
         NMat0=    1 NMatS0=   2346 NMatT0=    0 NMatD0=    1 NMtDS0=    0 NMtDT0=    0
 Symmetry not used in FoFCou.
          Solving linear equations simultaneously, MaxMat=       0.
          There are    42 degrees of freedom in the 1st order CPHF.  IDoFFX=6 NUNeed=     0.
     36 vectors produced by pass  0 Test12= 2.51D-15 2.38D-09 XBig12= 1.64D-01 1.36D-01.
 AX will form    36 AO Fock derivatives at one time.
     36 vectors produced by pass  1 Test12= 2.51D-15 2.38D-09 XBig12= 2.97D-02 4.84D-02.
     36 vectors produced by pass  2 Test12= 2.51D-15 2.38D-09 XBig12= 1.03D-04 1.66D-03.
     36 vectors produced by pass  3 Test12= 2.51D-15 2.38D-09 XBig12= 2.23D-07 7.64D-05.
     36 vectors produced by pass  4 Test12= 2.51D-15 2.38D-09 XBig12= 2.27D-10 2.38D-06.
     16 vectors produced by pass  5 Test12= 2.51D-15 2.38D-09 XBig12= 1.16D-13 4.57D-08.
 InvSVY:  IOpt=1 It=  1 EMax= 1.89D-15
 Solved reduced A of dimension   196 with    36 vectors.
 End of Minotr F.D. properties file   721 does not exist.
 End of Minotr F.D. properties file   722 does not exist.
 End of Minotr F.D. properties file   788 does not exist.
 Leave Link 1002 at Tue Apr 12 20:57:02 2016, MaxMem=    33554432 cpu:        16.1
 (Enter /usr/local/gau/g09/l601.exe)
 Copying SCF densities to generalized density rwf, IOpCl= 0 IROHF=0.

 **********************************************************************

            Population analysis using the SCF density.

 **********************************************************************

 Orbital symmetries:
       Occupied  (A) (A) (A) (A) (A) (A) (A) (A) (A) (A) (A) (A)
                 (A) (A) (A) (A) (A) (A) (A) (A) (A) (A) (A) (A)
       Virtual   (A) (A) (A) (A) (A) (A) (A) (A) (A) (A) (A) (A)
                 (A) (A) (A) (A) (A) (A) (A) (A) (A) (A) (A) (A)
                 (A) (A) (A) (A) (A) (A) (A) (A) (A) (A) (A) (A)
                 (A) (A) (A) (A) (A) (A) (A) (A)
 The electronic state is 1-A.
 Alpha  occ. eigenvalues --  -19.16006 -19.14313 -14.36948 -10.27975 -10.23269
 Alpha  occ. eigenvalues --  -10.19116  -1.06648  -1.01331  -0.94966  -0.77791
 Alpha  occ. eigenvalues --   -0.71442  -0.60962  -0.59580  -0.51979  -0.46690
 Alpha  occ. eigenvalues --   -0.44706  -0.42094  -0.40171  -0.38821  -0.35740
 Alpha  occ. eigenvalues --   -0.32464  -0.30351  -0.28978  -0.18145
 Alpha virt. eigenvalues --    0.00781   0.05301   0.06944   0.09761   0.10744
 Alpha virt. eigenvalues --    0.14996   0.16781   0.17341   0.20488   0.22125
 Alpha virt. eigenvalues --    0.26042   0.38201   0.44157   0.52393   0.55191
 Alpha virt. eigenvalues --    0.56737   0.61540   0.62847   0.65876   0.66676
 Alpha virt. eigenvalues --    0.71670   0.74934   0.76097   0.79339   0.82492
 Alpha virt. eigenvalues --    0.84965   0.86794   0.90228   0.91704   0.94388
 Alpha virt. eigenvalues --    0.96916   0.99088   0.99435   1.02981   1.08007
 Alpha virt. eigenvalues --    1.10468   1.17060   1.22547   1.29543   1.41132
 Alpha virt. eigenvalues --    1.45365   1.53973   1.85534   1.98513
          Condensed to atoms (all electrons):
               1          2          3          4          5          6
     1  N    7.354179   0.322678   0.169558   0.000047  -0.060101  -0.129153
     2  H    0.322678   0.345792  -0.018268   0.000003  -0.004282   0.006298
     3  C    0.169558  -0.018268   5.560471   0.001120   0.311071   0.403606
     4  H    0.000047   0.000003   0.001120   0.425069   0.000279  -0.040649
     5  C   -0.060101  -0.004282   0.311071   0.000279   5.081197   0.012783
     6  C   -0.129153   0.006298   0.403606  -0.040649   0.012783   4.989807
     7  H    0.001360   0.000971  -0.046308  -0.000084   0.370760  -0.002251
     8  H    0.003629  -0.000031  -0.033601  -0.000471   0.376026  -0.002667
     9  H    0.002160   0.002151  -0.047225   0.000154   0.363581  -0.000058
    10  O   -0.028842   0.000425  -0.157237   0.002808   0.003226   0.223067
    11  H    0.306279  -0.013559  -0.038180   0.000011   0.003631  -0.005848
    12  O    0.001679   0.000011  -0.105102   0.238983  -0.008137   0.244885
    13  H   -0.067134   0.004423  -0.215456  -0.001359   0.006539  -0.041864
               7          8          9         10         11         12
     1  N    0.001360   0.003629   0.002160  -0.028842   0.306279   0.001679
     2  H    0.000971  -0.000031   0.002151   0.000425  -0.013559   0.000011
     3  C   -0.046308  -0.033601  -0.047225  -0.157237  -0.038180  -0.105102
     4  H   -0.000084  -0.000471   0.000154   0.002808   0.000011   0.238983
     5  C    0.370760   0.376026   0.363581   0.003226   0.003631  -0.008137
     6  C   -0.002251  -0.002667  -0.000058   0.223067  -0.005848   0.244885
     7  H    0.590262  -0.022698  -0.044986  -0.000043  -0.000071   0.000320
     8  H   -0.022698   0.506555  -0.024362   0.000178  -0.000184   0.010732
     9  H   -0.044986  -0.024362   0.609378   0.000005  -0.000004   0.000488
    10  O   -0.000043   0.000178   0.000005   8.363630  -0.000693  -0.077570
    11  H   -0.000071  -0.000184  -0.000004  -0.000693   0.360747  -0.000018
    12  O    0.000320   0.010732   0.000488  -0.077570  -0.000018   8.275897
    13  H   -0.000208  -0.000294  -0.000712   0.201865   0.014063   0.019346
              13
     1  N   -0.067134
     2  H    0.004423
     3  C   -0.215456
     4  H   -0.001359
     5  C    0.006539
     6  C   -0.041864
     7  H   -0.000208
     8  H   -0.000294
     9  H   -0.000712
    10  O    0.201865
    11  H    0.014063
    12  O    0.019346
    13  H    0.754038
 Mulliken charges:
               1
     1  N   -0.876340
     2  H    0.353387
     3  C    0.215553
     4  H    0.374087
     5  C   -0.456572
     6  C    0.342043
     7  H    0.152977
     8  H    0.187188
     9  H    0.139432
    10  O   -0.530821
    11  H    0.373826
    12  O   -0.601513
    13  H    0.326753
 Sum of Mulliken charges =   0.00000
 Mulliken charges with hydrogens summed into heavy atoms:
               1
     1  N   -0.149127
     3  C    0.215553
     5  C    0.023025
     6  C    0.342043
    10  O   -0.204068
    12  O   -0.227426
 APT charges:
               1
     1  N   -1.340057
     2  H    0.764067
     3  C    0.272358
     4  H    0.652814
     5  C   -1.240110
     6  C    0.032794
     7  H    0.437142
     8  H    0.376478
     9  H    0.424815
    10  O   -0.355940
    11  H    0.546769
    12  O   -0.740235
    13  H    0.169105
 Sum of APT charges =   0.00000
 APT charges with hydrogens summed into heavy atoms:
               1
     1  N   -0.029220
     3  C    0.272358
     5  C   -0.001675
     6  C    0.032794
    10  O   -0.186835
    12  O   -0.087422
 Electronic spatial extent (au):  <R**2>=            599.9484
 Charge=              0.0000 electrons
 Dipole moment (field-independent basis, Debye):
    X=              3.8763    Y=             -0.0500    Z=              2.0399  Tot=              4.3806
 Quadrupole moment (field-independent basis, Debye-Ang):
   XX=            -33.4067   YY=            -34.8870   ZZ=            -37.9413
   XY=             -6.2205   XZ=             -2.8103   YZ=              1.6318
 Traceless Quadrupole moment (field-independent basis, Debye-Ang):
   XX=              2.0050   YY=              0.5247   ZZ=             -2.5296
   XY=             -6.2205   XZ=             -2.8103   YZ=              1.6318
 Octapole moment (field-independent basis, Debye-Ang**2):
  XXX=              6.1009  YYY=             -8.1126  ZZZ=              1.2810  XYY=              8.4045
  XXY=              4.4274  XXZ=              8.3670  XZZ=             -4.7250  YZZ=              2.1178
  YYZ=              3.9446  XYZ=             -5.9244
 Hexadecapole moment (field-independent basis, Debye-Ang**3):
 XXXX=           -346.7201 YYYY=           -265.9930 ZZZZ=            -43.3996 XXXY=            -43.7013
 XXXZ=            -13.5466 YYYX=            -25.6817 YYYZ=              2.4016 ZZZX=             -2.1023
 ZZZY=              0.7879 XXYY=           -111.6933 XXZZ=            -72.2712 YYZZ=            -57.1536
 XXYZ=              7.4793 YYXZ=             -4.6576 ZZXY=             -2.3203
 N-N= 2.481009675068D+02 E-N=-1.253585481063D+03  KE= 3.219392614617D+02
  Exact polarizability:   0.000   0.000   0.000   0.000   0.000   0.000
 Approx polarizability: 114.991   2.342  64.860  -1.658  -0.742  32.463
 No NMR shielding tensors so no spin-rotation constants.
 Leave Link  601 at Tue Apr 12 20:57:02 2016, MaxMem=    33554432 cpu:         0.1
 (Enter /usr/local/gau/g09/l701.exe)
 Compute integral second derivatives.
 ... and contract with generalized density number  0.
 Leave Link  701 at Tue Apr 12 20:57:02 2016, MaxMem=    33554432 cpu:         0.1
 (Enter /usr/local/gau/g09/l702.exe)
 L702 exits ... SP integral derivatives will be done elsewhere.
 Leave Link  702 at Tue Apr 12 20:57:02 2016, MaxMem=    33554432 cpu:         0.0
 (Enter /usr/local/gau/g09/l703.exe)
 Compute integral second derivatives, UseDBF=F ICtDFT=           0.
 Integral derivatives from FoFJK, PRISM(SPDF).
 Calling FoFJK, ICntrl=    100147 FMM=F ISym2X=0 I1Cent= 0 IOpClX= 0 NMat=1 NMatS=1 NMatT=0.
 FoFJK:  IHMeth= 1 ICntrl=  100147 DoSepK=F KAlg= 0 I1Cent=   0 FoldK=F
 IRaf=         0 NMat=   1 IRICut=       1 DoRegI=T DoRafI=F ISym2E= 0.
 FoFCou: FMM=F IPFlag=           0 FMFlag=      100000 FMFlg1=         800
         NFxFlg=           0 DoJE=F BraDBF=F KetDBF=F FulRan=T
         wScrn=  0.000000 ICntrl=  100147 IOpCl=  0 I1Cent=           0 NGrid=           0
         NMat0=    1 NMatS0=      1 NMatT0=    0 NMatD0=    1 NMtDS0=    0 NMtDT0=    0
 Symmetry not used in FoFCou.
 Leave Link  703 at Tue Apr 12 20:58:11 2016, MaxMem=    33554432 cpu:        26.9
 (Enter /usr/local/gau/g09/l716.exe)
 Dipole        = 1.52506080D+00-1.96604724D-02 8.02568718D-01
 Polarizability= 0.00000000D+00 0.00000000D+00 0.00000000D+00
                 0.00000000D+00 0.00000000D+00 0.00000000D+00
 ***** Axes restored to original set *****
 -------------------------------------------------------------------
 Center     Atomic                   Forces (Hartrees/Bohr)
 Number     Number              X              Y              Z
 -------------------------------------------------------------------
      1        7           0.031943069    0.023799712    0.003758080
      2        1           0.000412813    0.001664049   -0.001652959
      3        6           0.019469276   -0.083751421    0.007316371
      4        1          -0.001349625    0.002995020    0.002203870
      5        6           0.003665941    0.002255560    0.000863877
      6        6          -0.047315687   -0.038657589    0.005412955
      7        1           0.000311742   -0.000494351    0.000759765
      8        1          -0.001127493    0.001486324    0.000061643
      9        1           0.000221496   -0.000328385   -0.000709638
     10        8           0.081561798    0.003450486   -0.000605259
     11        1           0.017268948    0.029460456    0.004644131
     12        8           0.012450772    0.000471645   -0.003092807
     13        1          -0.117513050    0.057648495   -0.018960029
 -------------------------------------------------------------------
 Cartesian Forces:  Max     0.117513050 RMS     0.031364357
 Force constants in Cartesian coordinates: 
                1             2             3             4             5 
      1  0.887022D+00
      2  0.306893D-02  0.707864D+00
      3 -0.135254D-01 -0.386484D-01 -0.503985D-02
      4 -0.474696D+00 -0.280376D-01  0.332803D-01  0.487638D+00
      5 -0.251930D-01 -0.622316D-01  0.639540D-02  0.329285D-01  0.657684D-01
      6  0.420929D-01  0.806295D-02  0.354259D-02 -0.377010D-01 -0.569954D-02
      7 -0.173415D+00 -0.859883D-01  0.128644D-03 -0.742651D-02 -0.402810D-01
      8 -0.135753D+00 -0.298228D+00 -0.211769D-02 -0.856119D-03  0.476289D-03
      9 -0.879894D-03 -0.728125D-02 -0.119980D-01  0.188663D-02  0.267486D-02
     10 -0.569814D-03  0.186440D-02  0.268019D-02 -0.205306D-03 -0.339992D-03
     11  0.658494D-03 -0.677492D-03  0.135938D-02  0.294736D-03 -0.222632D-03
     12  0.153549D-02 -0.196648D-02 -0.426758D-03  0.413451D-03  0.214771D-03
     13  0.114128D-01 -0.213360D-01  0.231617D-03  0.218750D-02 -0.479192D-03
     14  0.245043D-01 -0.378240D-01  0.184127D-03  0.161640D-02  0.232284D-02
     15  0.237723D-02  0.108086D-03  0.119185D-02 -0.102949D-03  0.297592D-03
     16 -0.387583D-01  0.113506D-01  0.358405D-02 -0.149699D-02  0.545127D-03
     17 -0.439808D-01 -0.218411D-01 -0.161893D-02  0.503930D-02 -0.824342D-02
     18 -0.364262D-02 -0.179892D-02 -0.117663D-02 -0.135662D-03  0.243839D-05
     19  0.252011D-02 -0.630351D-03  0.174249D-02  0.263704D-03  0.225941D-03
     20 -0.162767D-02  0.265963D-02 -0.161902D-02 -0.496845D-03 -0.536664D-03
     21  0.950963D-03  0.810674D-03  0.173583D-03 -0.386909D-03  0.825405D-03
     22 -0.368100D-02  0.432216D-02 -0.221622D-03 -0.443553D-03  0.237627D-03
     23  0.469739D-02 -0.339300D-02  0.244959D-03  0.564960D-03  0.406168D-03
     24  0.991282D-04 -0.418608D-04  0.133289D-02 -0.928008D-04 -0.297122D-04
     25  0.216483D-02 -0.818321D-03 -0.159016D-02  0.387719D-03  0.293181D-03
     26 -0.710882D-03  0.300043D-02  0.133619D-02 -0.716586D-03 -0.582528D-03
     27 -0.106455D-02 -0.744089D-03  0.165239D-03  0.339572D-03 -0.963799D-03
     28  0.300127D-02 -0.557944D-02  0.212302D-02  0.265456D-02  0.222118D-02
     29 -0.134272D-01  0.187423D-01  0.232041D-02 -0.223114D-02  0.227311D-02
     30  0.456527D-04 -0.796589D-03 -0.200122D-02 -0.178048D-03  0.163918D-03
     31 -0.178895D+00  0.161959D+00 -0.148782D-01 -0.800582D-02  0.317310D-01
     32  0.181841D+00 -0.342534D+00  0.329505D-01 -0.662397D-02  0.840212D-02
     33 -0.200003D-01  0.381807D-01 -0.479695D-02  0.311078D-02 -0.303751D-02
     34 -0.303006D-02 -0.567532D-02 -0.322761D-02  0.140454D-02 -0.136979D-02
     35 -0.676396D-02 -0.461696D-02 -0.308920D-02 -0.495341D-04  0.811667D-04
     36 -0.120520D-02  0.306228D-02  0.102020D-01 -0.430500D-03 -0.571202D-03
     37 -0.330756D-01 -0.344997D-01 -0.103273D-01 -0.226126D-02 -0.519518D-03
     38  0.126869D-01  0.390799D-01  0.230231D-02 -0.143207D-02 -0.791324D-02
     39 -0.678341D-02  0.105294D-02  0.883126D-02 -0.286024D-05 -0.272621D-03
                6             7             8             9            10 
      6 -0.531940D-02
      7 -0.277925D-02  0.868584D+00
      8 -0.606451D-02  0.599467D-02  0.657514D+00
      9  0.110834D-02  0.126758D-01 -0.529369D-02  0.775674D-01
     10  0.577119D-03  0.355188D-03 -0.364247D-02 -0.256600D-02  0.155640D+00
     11  0.635451D-03  0.295989D-02 -0.151603D-02 -0.122412D-02  0.629827D-01
     12  0.664344D-04  0.329193D-02  0.382873D-02 -0.160530D-03  0.200205D+00
     13 -0.160877D-03 -0.132676D+00  0.657936D-01  0.200047D-02 -0.598507D-03
     14  0.405978D-03  0.530386D-01 -0.158522D+00 -0.170899D-02 -0.182393D-03
     15  0.497815D-02 -0.632325D-03  0.245566D-02 -0.659237D-01 -0.144760D-02
     16 -0.187244D-03 -0.510547D+00 -0.577770D-01 -0.922399D-02 -0.197417D-01
     17  0.676442D-03 -0.261345D-01 -0.917768D-01 -0.581190D-03 -0.841818D-02
     18 -0.504342D-02 -0.664589D-02 -0.353503D-02 -0.362171D-01 -0.152264D-01
     19 -0.260171D-03 -0.199118D-01  0.434429D-02 -0.164539D-01 -0.465524D-04
     20  0.334364D-03  0.229907D-01 -0.534998D-02  0.232769D-01  0.713913D-04
     21 -0.824230D-03 -0.694703D-03 -0.467741D-03  0.544013D-02  0.222774D-03
     22 -0.518472D-04  0.111140D-01  0.196312D-01 -0.957824D-04 -0.203946D-03
     23  0.409868D-04 -0.151352D-01 -0.224042D-01 -0.831449D-04  0.572738D-04
     24 -0.833919D-03 -0.151484D-03 -0.107338D-03 -0.202249D-02 -0.516649D-03
     25  0.464623D-03 -0.198710D-01  0.349336D-02  0.155277D-01  0.165659D-03
     26 -0.219972D-03  0.223199D-01 -0.417151D-02 -0.225225D-01  0.000000D+00
     27 -0.839450D-03  0.491886D-03  0.263046D-03  0.528921D-02 -0.383298D-04
     28 -0.386605D-03 -0.311148D-01  0.541726D-01 -0.141321D-02  0.365566D-03
     29 -0.914074D-03  0.231609D-02 -0.327906D-01 -0.113798D-02  0.144817D-02
     30  0.397375D-03 -0.908580D-03  0.202022D-02  0.545505D-02  0.224581D-03
     31 -0.565409D-02  0.157506D-01 -0.145586D-01  0.181980D-02  0.129766D-03
     32  0.583825D-03  0.208575D-01 -0.196489D-01  0.206524D-02  0.620071D-04
     33  0.791618D-02  0.208424D-02  0.136985D-02 -0.836483D-02 -0.643041D-03
     34 -0.281867D-03 -0.138563D-01 -0.306818D-01  0.468417D-02 -0.136631D+00
     35 -0.817136D-03 -0.698953D-02 -0.693772D-02  0.372582D-02 -0.536008D-01
     36  0.285206D-02 -0.380848D-03 -0.364213D-02 -0.145137D-03 -0.182438D+00
     37  0.432830D-02  0.130145D-01  0.898397D-01 -0.796177D-02  0.134033D-02
     38  0.297523D-02  0.440513D-01 -0.166444D-01  0.809010D-02 -0.302545D-03
     39 -0.800070D-02 -0.647943D-02  0.112906D-01  0.299718D-01 -0.103319D-02
               11            12            13            14            15 
     11  0.518597D-01
     12  0.512351D-01  0.304075D+00
     13  0.407586D-03  0.315842D-03  0.545175D+00
     14  0.140926D-03  0.679166D-04  0.613082D-01  0.541127D+00
     15 -0.968595D-03 -0.500720D-04  0.748656D-03  0.624919D-04  0.533238D+00
     16 -0.348809D-01  0.597254D-02 -0.248483D-01  0.144014D-01 -0.113426D-02
     17 -0.162462D-01  0.972999D-02  0.286914D-01  0.614733D-02  0.176375D-02
     18 -0.296016D-01  0.483464D-02 -0.493658D-03  0.198921D-03  0.810996D-02
     19  0.105498D-04 -0.617784D-04 -0.130693D+00 -0.410749D-02 -0.119213D+00
     20  0.703072D-04 -0.182855D-03 -0.360274D-02 -0.487605D-01 -0.124547D-02
     21  0.542799D-04 -0.123510D-03 -0.118982D+00 -0.299245D-02 -0.217339D+00
     22 -0.172882D-03 -0.473926D-04 -0.129698D+00 -0.131024D+00 -0.657741D-03
     23  0.323602D-03 -0.688469D-04 -0.123620D+00 -0.246173D+00 -0.102928D-02
     24  0.352060D-03  0.733578D-04 -0.376209D-03 -0.614227D-03 -0.492015D-01
     25  0.139547D-03  0.983497D-04 -0.132245D+00 -0.559050D-02  0.118675D+00
     26 -0.116877D-03  0.143082D-03 -0.473453D-02 -0.495865D-01  0.275031D-02
     27  0.326532D-05  0.386815D-04  0.118192D+00  0.495599D-02 -0.212986D+00
     28  0.402053D-02  0.123313D-02  0.772907D-03 -0.775333D-02 -0.278748D-02
     29  0.550869D-03 -0.270924D-03 -0.146755D-02  0.477623D-02 -0.205281D-03
     30  0.148425D-02 -0.144771D-02  0.669101D-04 -0.418267D-03  0.105588D-01
     31 -0.178056D-03 -0.394214D-03 -0.265407D-02 -0.113830D-02  0.442992D-03
     32 -0.506844D-03 -0.268121D-03 -0.533446D-02 -0.261749D-02  0.101057D-03
     33 -0.368799D-03  0.246505D-03 -0.305814D-04 -0.547085D-03 -0.957502D-03
     34 -0.336359D-01 -0.210486D+00  0.545813D-03 -0.121155D-02  0.178556D-02
     35 -0.355465D-01 -0.620071D-01  0.260894D-02 -0.388257D-02  0.775516D-03
     36 -0.229009D-01 -0.308142D+00 -0.639119D-03 -0.255756D-03 -0.553093D-02
     37 -0.260620D-02 -0.207672D-02 -0.668036D-02 -0.386173D-02  0.194617D-02
     38  0.188724D-02 -0.455270D-03  0.176510D-02 -0.714848D-02 -0.486583D-02
     39 -0.598523D-04  0.101582D-02 -0.873471D-03  0.661345D-03 -0.608775D-02
               16            17            18            19            20 
     16  0.809660D+00
     17  0.999605D-01  0.544784D+00
     18  0.298290D-01 -0.180348D-01  0.900494D-01
     19  0.327349D-02  0.261308D-02 -0.953529D-03  0.146635D+00
     20 -0.211304D-02 -0.387858D-02 -0.153478D-04 -0.224722D-02  0.515803D-01
     21  0.219736D-02 -0.553237D-03 -0.646571D-03  0.133206D+00  0.201786D-02
     22  0.510423D-03  0.190552D-02  0.144099D-03 -0.985771D-02 -0.157591D-01
     23 -0.143191D-02 -0.246119D-02  0.223585D-03  0.902166D-03  0.888588D-03
     24  0.610147D-05 -0.100397D-04  0.352618D-03 -0.156767D-01 -0.245819D-01
     25  0.331129D-02  0.186046D-02  0.108829D-02  0.113176D-01  0.215363D-03
     26 -0.232995D-02 -0.299857D-02 -0.175900D-03 -0.558709D-04  0.336394D-03
     27 -0.192220D-02  0.461766D-03 -0.822892D-03  0.174039D-01  0.169359D-02
     28 -0.134820D+00  0.133445D+00 -0.891250D-02 -0.208279D-02  0.232615D-02
     29  0.794414D-01 -0.173810D+00  0.118170D-01  0.162391D-02 -0.904550D-03
     30 -0.748988D-02  0.553864D-02 -0.387557D-01  0.141231D-02 -0.189411D-02
     31  0.477050D-02  0.324089D-03  0.243641D-03  0.198464D-04 -0.216914D-03
     32  0.748828D-02 -0.553650D-02  0.841519D-03 -0.110009D-03  0.265202D-03
     33 -0.148855D-02  0.594576D-03  0.306501D-02 -0.191319D-03 -0.511381D-04
     34 -0.126731D+00 -0.886533D-01  0.102529D-02 -0.649480D-03 -0.126440D-03
     35 -0.667533D-01 -0.192102D+00  0.269154D-01 -0.576603D-03  0.115151D-02
     36 -0.230159D-01 -0.766815D-02 -0.549433D-01 -0.306057D-03  0.101055D-02
     37  0.354175D-01 -0.106652D+00  0.367994D-02 -0.787963D-03  0.586362D-03
     38 -0.479012D-01 -0.320372D-01  0.131628D-01 -0.199240D-02  0.247834D-02
     39  0.287303D-02  0.970117D-02  0.311941D-01 -0.648289D-03  0.125664D-02
               21            22            23            24            25 
     21  0.237097D+00
     22  0.127632D-02  0.141182D+00
     23  0.769620D-03  0.136497D+00  0.269521D+00
     24  0.302826D-03  0.987807D-03  0.866092D-03  0.496763D-01
     25 -0.166881D-01 -0.977643D-02  0.102134D-02  0.154657D-01  0.148557D+00
     26 -0.128241D-02 -0.153988D-01  0.101313D-02  0.244444D-01 -0.734257D-03
     27 -0.243453D-01 -0.151730D-02 -0.679349D-03  0.485251D-03 -0.132990D+00
     28  0.669455D-04 -0.400401D-04  0.465737D-03  0.492469D-04 -0.147006D-02
     29  0.915831D-03 -0.607041D-03  0.427815D-03  0.737167D-05  0.167976D-02
     30 -0.307772D-03  0.645081D-04 -0.459047D-04 -0.122939D-03 -0.158928D-02
     31  0.131184D-03  0.856651D-03 -0.690811D-03 -0.203010D-04 -0.514065D-04
     32  0.909072D-04  0.148996D-02 -0.977068D-03  0.916809D-05 -0.128900D-03
     33  0.319005D-04  0.801071D-04 -0.172069D-03  0.783252D-03  0.154791D-04
     34 -0.372022D-03 -0.163768D-02 -0.150617D-02  0.133639D-03 -0.124758D-02
     35 -0.272338D-03 -0.842560D-03  0.245011D-02 -0.303923D-03 -0.497736D-03
     36  0.302567D-03 -0.183691D-03  0.150173D-03 -0.678105D-03  0.545530D-03
     37 -0.927948D-03  0.167501D-02 -0.182173D-02  0.924894D-04 -0.124232D-02
     38  0.835962D-04 -0.279870D-03  0.378366D-03  0.997152D-05 -0.933299D-03
     39  0.238575D-03  0.222534D-03 -0.216818D-03 -0.147542D-03  0.977582D-03
               26            27            28            29            30 
     26  0.518568D-01
     27 -0.434269D-02  0.232705D+00
     28  0.131631D-02  0.285311D-03  0.135311D+00
     29 -0.111977D-02 -0.933838D-03 -0.120395D+00  0.245494D+00
     30  0.198781D-02 -0.269471D-03  0.927960D-02 -0.144685D-01  0.525912D-01
     31  0.446890D-04 -0.161408D-03 -0.873944D-02  0.157799D-02  0.107255D-03
     32  0.287835D-03 -0.548369D-04  0.419687D-02  0.706332D-02  0.100058D-03
     33  0.155524D-04  0.106787D-03 -0.239143D-03 -0.141007D-02 -0.280074D-02
     34 -0.468129D-03  0.173540D-03  0.181805D-01  0.115986D-01  0.317170D-03
     35  0.131566D-02  0.881443D-04 -0.199412D-01 -0.457995D-01  0.499808D-02
     36 -0.805947D-03  0.116304D-03  0.430311D-03  0.511208D-02  0.765449D-02
     37  0.146760D-02  0.807697D-03  0.179807D-01  0.384424D-01 -0.135220D-02
     38  0.765548D-03  0.252798D-03 -0.484948D-01 -0.249039D-01  0.133035D-02
     39 -0.132789D-02  0.356179D-03  0.271370D-03 -0.832061D-03 -0.309514D-01
               31            32            33            34            35 
     31  0.183270D+00
     32 -0.164739D+00  0.379547D+00
     33  0.226231D-01 -0.335792D-01 -0.232188D-01
     34 -0.804942D-03 -0.698712D-03  0.695209D-03  0.271770D+00
     35  0.528965D-05  0.230459D-02  0.830281D-03  0.147300D+00  0.290569D+00
     36  0.175645D-03 -0.218199D-03 -0.151956D-02  0.204808D+00  0.268291D-01
     37 -0.564695D-02 -0.383007D-01 -0.601603D-02 -0.731365D-02  0.610051D-02
     38 -0.141205D-01 -0.260491D-01 -0.182513D-02  0.512803D-02 -0.898691D-02
     39 -0.443548D-02 -0.262194D-02  0.295087D-01  0.744463D-03  0.232743D-02
               36            37            38            39 
     36  0.353573D+00
     37  0.264025D-02 -0.124199D-01
     38 -0.101943D-03  0.518253D-01  0.790938D-01
     39 -0.374150D-02  0.151672D-01 -0.209590D-01 -0.521875D-01
 FormGI is forming the generalized inverse of G from B-inverse, IUseBI=4.
 Leave Link  716 at Tue Apr 12 20:58:12 2016, MaxMem=    33554432 cpu:         0.0
 (Enter /usr/local/gau/g09/l103.exe)

 GradGradGradGradGradGradGradGradGradGradGradGradGradGradGradGradGradGrad
 Berny optimization.
 Red2BG is reusing G-inverse.
 Internal  Forces:  Max     0.293674842 RMS     0.060522416
 Search for a saddle point.
 Step number   1 out of a maximum of   57
 All quantities printed in internal units (Hartrees-Bohrs-Radians)
 Swapping is turned off.
 Second derivative matrix not updated -- analytic derivatives used.
 ITU=  0
     Eigenvalues ---   -0.48703  -0.12471  -0.01142   0.00174   0.00277
     Eigenvalues ---    0.00764   0.01626   0.02546   0.03570   0.06318
     Eigenvalues ---    0.06361   0.10542   0.12404   0.13180   0.14439
     Eigenvalues ---    0.14731   0.15611   0.17907   0.20676   0.23516
     Eigenvalues ---    0.24704   0.32284   0.32922   0.33511   0.34924
     Eigenvalues ---    0.35832   0.37518   0.42527   0.45999   0.46234
     Eigenvalues ---    0.49380   0.56796   1.75814
 Eigenvectors required to have negative eigenvalues:
                          A16       A13       A14       R12       A3
   1                   -0.69689   0.41989  -0.25971  -0.25294  -0.17897
                          R5        A15       D6        D5        A5
   1                    0.17622  -0.15989  -0.13581  -0.12886   0.12694
 Eigenvalue     2 is  -1.25D-01 should be greater than     0.000000 Eigenvector:
                          D6        D5        D4        D3        D15
   1                    0.75780   0.44252  -0.26416  -0.24770  -0.15977
                          D13       R12       A16       D18       D1
   1                   -0.14223  -0.11897  -0.09693   0.07445   0.06778
 Eigenvalue     3 is  -1.14D-02 should be greater than     0.000000 Eigenvector:
                          R12       D1        D2        D3        D4
   1                    0.38664  -0.37241  -0.35761  -0.32867  -0.31387
                          D18       D15       D14       D13       D16
   1                   -0.29798   0.25207  -0.23812   0.23606  -0.22211
 RFO step:  Lambda0=1.786694662D-01 Lambda=-1.56295231D-01.
 Linear search not attempted -- option 19 set.
 Maximum step size (   0.300) exceeded in Quadratic search.
    -- Step size scaled by   0.433
 Iteration  1 RMS(Cart)=  0.07467865 RMS(Int)=  0.01512288
 Iteration  2 RMS(Cart)=  0.01813608 RMS(Int)=  0.00067381
 Iteration  3 RMS(Cart)=  0.00065818 RMS(Int)=  0.00031935
 Iteration  4 RMS(Cart)=  0.00000103 RMS(Int)=  0.00031935
 Iteration  5 RMS(Cart)=  0.00000000 RMS(Int)=  0.00031935
 ITry= 1 IFail=0 DXMaxC= 3.34D-01 DCOld= 1.00D+10 DXMaxT= 3.00D-01 DXLimC= 3.00D+00 Rises=F
 Variable       Old X    -DE/DX   Delta X   Delta X   Delta X     New X
                                 (Linear)    (Quad)   (Total)
    R1        1.89636   0.00067   0.00000   0.00169   0.00169   1.89805
    R2        2.63279   0.07054   0.00000   0.10916   0.10916   2.74195
    R3        1.89992   0.12917   0.00000   0.03627   0.03627   1.93619
    R4        2.84087  -0.00048   0.00000  -0.01124  -0.01124   2.82963
    R5        2.54221  -0.04271   0.00000   0.01878   0.01878   2.56099
    R6        1.85600  -0.00155   0.00000  -0.00193  -0.00193   1.85406
    R7        2.07561   0.00080   0.00000   0.00119   0.00119   2.07681
    R8        2.06050  -0.00066   0.00000  -0.00032  -0.00032   2.06017
    R9        2.07718   0.00070   0.00000   0.00179   0.00179   2.07897
   R10        2.66481  -0.04395   0.00000  -0.08316  -0.08316   2.58166
   R11        2.64885  -0.00854   0.00000   0.00593   0.00593   2.65478
   R12        2.31718   0.03769   0.00000  -0.18556  -0.18556   2.13162
    A1        2.10258  -0.07266   0.00000   0.00192   0.00071   2.10329
    A2        2.07788  -0.07695   0.00000  -0.01045  -0.01170   2.06618
    A3        2.08053   0.15374   0.00000   0.02636   0.02514   2.10567
    A4        2.03345   0.02027   0.00000   0.01017   0.01017   2.04362
    A5        2.10966  -0.04794   0.00000  -0.07382  -0.07382   2.03584
    A6        2.14004   0.02767   0.00000   0.06364   0.06364   2.20368
    A7        1.93153   0.00099   0.00000   0.00123   0.00120   1.93273
    A8        1.93081  -0.00294   0.00000  -0.01598  -0.01597   1.91484
    A9        1.93804   0.00073   0.00000   0.01115   0.01115   1.94919
   A10        1.88943   0.00055   0.00000   0.00368   0.00366   1.89309
   A11        1.87473   0.00008   0.00000   0.00041   0.00038   1.87511
   A12        1.89759   0.00069   0.00000  -0.00017  -0.00013   1.89745
   A13        2.10339  -0.11627   0.00000   0.04255   0.04244   2.14583
   A14        2.16418   0.04919   0.00000  -0.05856  -0.05867   2.10551
   A15        2.01544   0.06709   0.00000   0.01556   0.01545   2.03090
   A16        1.34401   0.29367   0.00000  -0.13041  -0.13041   1.21361
   A17        1.93088  -0.00242   0.00000  -0.00306  -0.00306   1.92781
    D1        0.10954  -0.00517   0.00000   0.02359   0.02341   0.13295
    D2       -3.04060  -0.00489   0.00000   0.02280   0.02268  -3.01792
    D3        3.02427   0.00598   0.00000   0.11208   0.11220   3.13647
    D4       -0.12587   0.00626   0.00000   0.11128   0.11146  -0.01441
    D5        2.91708   0.00211   0.00000  -0.20657  -0.20673   2.71035
    D6       -0.00088  -0.00888   0.00000  -0.29532  -0.29516  -0.29604
    D7        1.03078   0.00053   0.00000   0.00463   0.00462   1.03541
    D8        3.12490  -0.00006   0.00000  -0.00038  -0.00038   3.12452
    D9       -1.04963  -0.00068   0.00000  -0.00390  -0.00394  -1.05357
   D10       -2.10210   0.00066   0.00000   0.00618   0.00620  -2.09590
   D11       -0.00799   0.00007   0.00000   0.00116   0.00120  -0.00678
   D12        2.10067  -0.00055   0.00000  -0.00235  -0.00236   2.09831
   D13        0.09061  -0.00041   0.00000   0.00652   0.00644   0.09705
   D14       -3.03040  -0.00128   0.00000   0.03416   0.03425  -2.99615
   D15       -3.06006  -0.00018   0.00000   0.00536   0.00528  -3.05479
   D16        0.10211  -0.00106   0.00000   0.03300   0.03308   0.13519
   D17       -2.06781  -0.00352   0.00000  -0.02531  -0.02513  -2.09293
   D18        1.09343  -0.00238   0.00000   0.00072   0.00054   1.09397
         Item               Value     Threshold  Converged?
 Maximum Force            0.293675     0.000450     NO 
 RMS     Force            0.060522     0.000300     NO 
 Maximum Displacement     0.333863     0.001800     NO 
 RMS     Displacement     0.083693     0.001200     NO 
 Predicted change in Energy= 8.671952D-03
 Lowest energy point so far.  Saving SCF results.
 GradGradGradGradGradGradGradGradGradGradGradGradGradGradGradGradGradGrad

 Leave Link  103 at Tue Apr 12 20:58:12 2016, MaxMem=    33554432 cpu:         0.0
 (Enter /usr/local/gau/g09/l202.exe)
                          Input orientation:                          
 ---------------------------------------------------------------------
 Center     Atomic      Atomic             Coordinates (Angstroms)
 Number     Number       Type             X           Y           Z
 ---------------------------------------------------------------------
      1          7           0        1.178730    1.183909    0.061774
      2          1           0        2.172641    1.292333   -0.034207
      3          6           0        0.574396   -0.134654    0.022876
      4          1           0       -2.010706   -1.582940   -0.639828
      5          6           0        1.502146   -1.309941    0.012392
      6          6           0       -0.779928   -0.182377    0.010738
      7          1           0        2.140167   -1.310059    0.907225
      8          1           0        0.924401   -2.234380    0.000107
      9          1           0        2.165308   -1.296422   -0.865302
     10          8           0       -1.561977    0.934281   -0.077871
     11          1           0        0.595082    2.026001    0.066103
     12          8           0       -1.454397   -1.406957    0.148944
     13          1           0       -0.004257    1.132473   -0.272711
 ---------------------------------------------------------------------
                    Distance matrix (angstroms):
                    1          2          3          4          5
     1  N    0.000000
     2  H    1.004404   0.000000
     3  C    1.450979   2.143347   0.000000
     4  H    4.280210   5.112177   3.036357   0.000000
     5  C    2.515219   2.687669   1.497374   3.583301   0.000000
     6  C    2.388658   3.300675   1.355220   1.974747   2.545440
     7  H    2.803395   2.767632   2.148322   4.438196   1.098999
     8  H    3.428293   3.741255   2.128820   3.073881   1.090196
     9  H    2.825748   2.718901   2.160918   4.191900   1.100142
    10  O    2.755592   3.751996   2.390996   2.617929   3.799148
    11  H    1.024589   1.742706   2.161186   4.506986   3.457479
    12  O    3.695070   4.524943   2.398051   0.981127   2.961284
    13  H    1.230441   2.195751   1.424016   3.396186   2.883734
                    6          7          8          9         10
     6  C    0.000000
     7  H    3.256119   0.000000
     8  H    2.667502   1.776322   0.000000
     9  H    3.268480   1.772758   1.780042   0.000000
    10  O    1.366154   4.439971   4.028470   4.414605   0.000000
    11  H    2.602048   3.771481   4.273600   3.790992   2.421876
    12  O    1.404850   3.674952   2.522987   3.760742   2.354658
    13  H    1.552688   3.457856   3.503218   3.310243   1.582319
                   11         12         13
    11  H    0.000000
    12  O    3.999053   0.000000
    13  H    1.128005   2.954556   0.000000
 Stoichiometry    C3H7NO2
 Framework group  C1[X(C3H7NO2)]
 Deg. of freedom    33
 Full point group                 C1      NOp   1
 RotChk:  IX=0 Diff= 5.62D-03
 Largest Abelian subgroup         C1      NOp   1
 Largest concise Abelian subgroup C1      NOp   1
                         Standard orientation:                         
 ---------------------------------------------------------------------
 Center     Atomic      Atomic             Coordinates (Angstroms)
 Number     Number       Type             X           Y           Z
 ---------------------------------------------------------------------
      1          7           0        1.338839   -1.217793   -0.059439
      2          1           0        2.337071   -1.238372    0.049812
      3          6           0        0.617559    0.040013   -0.004468
      4          1           0       -2.096466    1.236042    0.645948
      5          6           0        1.435286    1.293485    0.043060
      6          6           0       -0.735588   -0.034482   -0.012385
      7          1           0        2.082882    1.369411   -0.841616
      8          1           0        0.776398    2.161787    0.064233
      9          1           0        2.084891    1.321555    0.930494
     10          8           0       -1.414866   -1.218518    0.042538
     11          1           0        0.833641   -2.108680   -0.089055
     12          8           0       -1.515809    1.127086   -0.137363
     13          1           0        0.151568   -1.279830    0.257616
 ---------------------------------------------------------------------
 Rotational constants (GHZ):      4.8143094      3.3306441      2.0072790
 Leave Link  202 at Tue Apr 12 20:58:12 2016, MaxMem=    33554432 cpu:         0.0
 (Enter /usr/local/gau/g09/l301.exe)
 Standard basis: 6-31G (6D, 7F)
 Ernie: Thresh=  0.10000D-02 Tol=  0.10000D-05 Strict=F.
 There are    68 symmetry adapted cartesian basis functions of A   symmetry.
 There are    68 symmetry adapted basis functions of A   symmetry.
    68 basis functions,   160 primitive gaussians,    68 cartesian basis functions
    24 alpha electrons       24 beta electrons
       nuclear repulsion energy       247.2603325924 Hartrees.
 IExCor=  402 DFT=T Ex+Corr=B3LYP ExCW=0 ScaHFX=  0.200000
 ScaDFX=  0.800000  0.720000  1.000000  0.810000 ScalE2=  1.000000  1.000000
 IRadAn=      0 IRanWt=     -1 IRanGd=            0 ICorTp=0 IEmpDi=  4
 NAtoms=   13 NActive=   13 NUniq=   13 SFac= 1.00D+00 NAtFMM=   60 NAOKFM=F Big=F
 Integral buffers will be    131072 words long.
 Raffenetti 2 integral format.
 Two-electron integral symmetry is turned on.
 Leave Link  301 at Tue Apr 12 20:58:12 2016, MaxMem=    33554432 cpu:         0.0
 (Enter /usr/local/gau/g09/l302.exe)
 NPDir=0 NMtPBC=     1 NCelOv=     1 NCel=       1 NClECP=     1 NCelD=      1
         NCelK=      1 NCelE2=     1 NClLst=     1 CellRange=     0.0.
 One-electron integrals computed using PRISM.
 NBasis=    68 RedAO= T EigKep=  2.94D-03  NBF=    68
 NBsUse=    68 1.00D-06 EigRej= -1.00D+00 NBFU=    68
 Precomputing XC quadrature grid using
 IXCGrd= 4 IRadAn=           0 IRanWt=          -1 IRanGd=           0 AccXCQ= 0.00D+00.
 Generated NRdTot=       0 NPtTot=           0 NUsed=           0 NTot=          32
 NSgBfM=    68    68    68    68    68 MxSgAt=    13 MxSgA2=    13.
 Leave Link  302 at Tue Apr 12 20:58:13 2016, MaxMem=    33554432 cpu:         0.3
 (Enter /usr/local/gau/g09/l303.exe)
 DipDrv:  MaxL=1.
 Leave Link  303 at Tue Apr 12 20:58:13 2016, MaxMem=    33554432 cpu:         0.0
 (Enter /usr/local/gau/g09/l401.exe)
 Initial guess from the checkpoint file:  "Ala-S-opt-freq-tsa3-6-31g.chk"
 B after Tr=     0.000000    0.000000    0.000000
         Rot=    1.000000    0.000348   -0.000677   -0.000466 Ang=   0.10 deg.
 Guess basis will be translated and rotated to current coordinates.
 JPrj=2 DoOrth=T DoCkMO=T.
 Generating alternative initial guess.
 ExpMin= 1.61D-01 ExpMax= 5.48D+03 ExpMxC= 8.25D+02 IAcc=1 IRadAn=         1 AccDes= 0.00D+00
 Harris functional with IExCor=  402 and IRadAn=       1 diagonalized for initial guess.
 HarFok:  IExCor=  402 AccDes= 0.00D+00 IRadAn=         1 IDoV= 1 UseB2=F ITyADJ=14
 ICtDFT=  3500011 ScaDFX=  1.000000  1.000000  1.000000  1.000000
 FoFCou: FMM=F IPFlag=           0 FMFlag=      100000 FMFlg1=           0
         NFxFlg=           0 DoJE=T BraDBF=F KetDBF=T FulRan=T
         wScrn=  0.000000 ICntrl=     500 IOpCl=  0 I1Cent=   200000004 NGrid=           0
         NMat0=    1 NMatS0=      1 NMatT0=    0 NMatD0=    1 NMtDS0=    0 NMtDT0=    0
 Petite list used in FoFCou.
 Harris En= -323.481965636597    
 Leave Link  401 at Tue Apr 12 20:58:14 2016, MaxMem=    33554432 cpu:         0.6
 (Enter /usr/local/gau/g09/l502.exe)
 Closed shell SCF:
 Using DIIS extrapolation, IDIIS=  1040.
 Integral symmetry usage will be decided dynamically.
 Keep R1 ints in memory in canonical form, NReq=3676491.
 IVT=       33364 IEndB=       33364 NGot=    33554432 MDV=    30768038
 LenX=    30768038 LenY=    30762973
 Requested convergence on RMS density matrix=1.00D-08 within 128 cycles.
 Requested convergence on MAX density matrix=1.00D-06.
 Requested convergence on             energy=1.00D-06.
 No special actions if energy rises.
 FoFCou: FMM=F IPFlag=           0 FMFlag=           0 FMFlg1=           0
         NFxFlg=           0 DoJE=F BraDBF=F KetDBF=F FulRan=T
         wScrn=  0.000000 ICntrl=     600 IOpCl=  0 I1Cent=           0 NGrid=           0
         NMat0=    1 NMatS0=   2346 NMatT0=    0 NMatD0=    1 NMtDS0=    0 NMtDT0=    0
 Symmetry not used in FoFCou.
 Integral accuracy reduced to 1.0D-05 until final iterations.

 Cycle   1  Pass 0  IDiag  1:
 E= -323.381935251895    
 DIIS: error= 1.43D-02 at cycle   1 NSaved=   1.
 NSaved= 1 IEnMin= 1 EnMin= -323.381935251895     IErMin= 1 ErrMin= 1.43D-02
 ErrMax= 1.43D-02  0.00D+00 EMaxC= 1.00D-01 BMatC= 1.27D-02 BMatP= 1.27D-02
 IDIUse=3 WtCom= 8.57D-01 WtEn= 1.43D-01
 Coeff-Com:  0.100D+01
 Coeff-En:   0.100D+01
 Coeff:      0.100D+01
 Recover alternate guess density for next cycle.
 RMSDP=9.81D-03 MaxDP=1.16D-01              OVMax= 0.00D+00

 Cycle   2  Pass 0  IDiag  1:
 E= -323.204445039370     Delta-E=        0.177490212525 Rises=F Damp=F
 Switch densities from cycles 1 and 2 for lowest energy.
 DIIS: error= 3.32D-02 at cycle   2 NSaved=   2.
 NSaved= 2 IEnMin= 1 EnMin= -323.381935251895     IErMin= 1 ErrMin= 1.43D-02
 ErrMax= 3.32D-02  0.00D+00 EMaxC= 1.00D+00 BMatC= 2.19D-01 BMatP= 1.27D-02
 IDIUse=1 WtCom= 1.00D+00 WtEn= 0.00D+00
 Coeff-Com:  0.963D+00 0.368D-01
 Coeff:      0.963D+00 0.368D-01
 Gap=     0.234 Goal=   None    Shift=    0.000
 RMSDP=5.32D-03 MaxDP=6.00D-02 DE= 1.77D-01 OVMax= 1.37D-01

 Cycle   3  Pass 0  IDiag  1:
 E= -323.408940893162     Delta-E=       -0.204495853792 Rises=F Damp=F
 DIIS: error= 5.50D-03 at cycle   3 NSaved=   3.
 NSaved= 3 IEnMin= 3 EnMin= -323.408940893162     IErMin= 3 ErrMin= 5.50D-03
 ErrMax= 5.50D-03  0.00D+00 EMaxC= 1.00D+00 BMatC= 2.15D-03 BMatP= 1.27D-02
 IDIUse=1 WtCom= 1.00D+00 WtEn= 0.00D+00
 Coeff-Com:  0.342D-01 0.611D-01 0.905D+00
 Coeff:      0.342D-01 0.611D-01 0.905D+00
 Gap=     0.184 Goal=   None    Shift=    0.000
 RMSDP=2.01D-03 MaxDP=2.82D-02 DE=-2.04D-01 OVMax= 3.95D-02

 Cycle   4  Pass 0  IDiag  1:
 E= -323.406815823143     Delta-E=        0.002125070018 Rises=F Damp=F
 DIIS: error= 1.31D-02 at cycle   4 NSaved=   4.
 NSaved= 4 IEnMin= 3 EnMin= -323.408940893162     IErMin= 3 ErrMin= 5.50D-03
 ErrMax= 1.31D-02  0.00D+00 EMaxC= 1.00D+00 BMatC= 4.31D-03 BMatP= 2.15D-03
 IDIUse=1 WtCom= 1.00D+00 WtEn= 0.00D+00
 Coeff-Com: -0.475D-01 0.367D-01 0.660D+00 0.351D+00
 Coeff:     -0.475D-01 0.367D-01 0.660D+00 0.351D+00
 Gap=     0.183 Goal=   None    Shift=    0.000
 RMSDP=1.27D-03 MaxDP=1.74D-02 DE= 2.13D-03 OVMax= 3.73D-02

 Cycle   5  Pass 0  IDiag  1:
 E= -323.411086111713     Delta-E=       -0.004270288570 Rises=F Damp=F
 DIIS: error= 1.14D-03 at cycle   5 NSaved=   5.
 NSaved= 5 IEnMin= 5 EnMin= -323.411086111713     IErMin= 5 ErrMin= 1.14D-03
 ErrMax= 1.14D-03  0.00D+00 EMaxC= 1.00D+00 BMatC= 1.12D-04 BMatP= 2.15D-03
 IDIUse=1 WtCom= 1.00D+00 WtEn= 0.00D+00
 Coeff-Com: -0.273D-01 0.187D-01 0.317D+00 0.214D+00 0.478D+00
 Coeff:     -0.273D-01 0.187D-01 0.317D+00 0.214D+00 0.478D+00
 Gap=     0.183 Goal=   None    Shift=    0.000
 RMSDP=2.08D-04 MaxDP=2.09D-03 DE=-4.27D-03 OVMax= 3.23D-03

 Cycle   6  Pass 0  IDiag  1:
 E= -323.411173229579     Delta-E=       -0.000087117865 Rises=F Damp=F
 DIIS: error= 3.85D-04 at cycle   6 NSaved=   6.
 NSaved= 6 IEnMin= 6 EnMin= -323.411173229579     IErMin= 6 ErrMin= 3.85D-04
 ErrMax= 3.85D-04  0.00D+00 EMaxC= 1.00D+00 BMatC= 1.49D-05 BMatP= 1.12D-04
 IDIUse=1 WtCom= 1.00D+00 WtEn= 0.00D+00
 Coeff-Com: -0.380D-02 0.537D-03 0.110D-01 0.497D-01 0.284D+00 0.658D+00
 Coeff:     -0.380D-02 0.537D-03 0.110D-01 0.497D-01 0.284D+00 0.658D+00
 Gap=     0.183 Goal=   None    Shift=    0.000
 RMSDP=7.85D-05 MaxDP=8.46D-04 DE=-8.71D-05 OVMax= 1.04D-03

 Cycle   7  Pass 0  IDiag  1:
 E= -323.411186060974     Delta-E=       -0.000012831396 Rises=F Damp=F
 DIIS: error= 8.67D-05 at cycle   7 NSaved=   7.
 NSaved= 7 IEnMin= 7 EnMin= -323.411186060974     IErMin= 7 ErrMin= 8.67D-05
 ErrMax= 8.67D-05  0.00D+00 EMaxC= 1.00D+00 BMatC= 6.70D-07 BMatP= 1.49D-05
 IDIUse=1 WtCom= 1.00D+00 WtEn= 0.00D+00
 Coeff-Com:  0.168D-03-0.995D-03-0.145D-01 0.961D-02 0.103D+00 0.294D+00
 Coeff-Com:  0.609D+00
 Coeff:      0.168D-03-0.995D-03-0.145D-01 0.961D-02 0.103D+00 0.294D+00
 Coeff:      0.609D+00
 Gap=     0.183 Goal=   None    Shift=    0.000
 RMSDP=1.91D-05 MaxDP=2.27D-04 DE=-1.28D-05 OVMax= 2.88D-04

 Cycle   8  Pass 0  IDiag  1:
 E= -323.411186785421     Delta-E=       -0.000000724446 Rises=F Damp=F
 DIIS: error= 1.99D-05 at cycle   8 NSaved=   8.
 NSaved= 8 IEnMin= 8 EnMin= -323.411186785421     IErMin= 8 ErrMin= 1.99D-05
 ErrMax= 1.99D-05  0.00D+00 EMaxC= 1.00D+00 BMatC= 4.27D-08 BMatP= 6.70D-07
 IDIUse=1 WtCom= 1.00D+00 WtEn= 0.00D+00
 Coeff-Com:  0.378D-03-0.368D-03-0.564D-02-0.279D-02 0.321D-02 0.116D-01
 Coeff-Com:  0.202D+00 0.792D+00
 Coeff:      0.378D-03-0.368D-03-0.564D-02-0.279D-02 0.321D-02 0.116D-01
 Coeff:      0.202D+00 0.792D+00
 Gap=     0.183 Goal=   None    Shift=    0.000
 RMSDP=6.22D-06 MaxDP=5.19D-05 DE=-7.24D-07 OVMax= 1.33D-04

 Initial convergence to 1.0D-05 achieved.  Increase integral accuracy.
 Cycle   9  Pass 1  IDiag  1:
 E= -323.411212204056     Delta-E=       -0.000025418636 Rises=F Damp=F
 DIIS: error= 9.66D-06 at cycle   1 NSaved=   1.
 NSaved= 1 IEnMin= 1 EnMin= -323.411212204056     IErMin= 1 ErrMin= 9.66D-06
 ErrMax= 9.66D-06  0.00D+00 EMaxC= 1.00D+00 BMatC= 9.04D-09 BMatP= 9.04D-09
 IDIUse=1 WtCom= 1.00D+00 WtEn= 0.00D+00
 Coeff-Com:  0.100D+01
 Coeff:      0.100D+01
 Gap=     0.183 Goal=   None    Shift=    0.000
 RMSDP=6.22D-06 MaxDP=5.19D-05 DE=-2.54D-05 OVMax= 6.93D-05

 Cycle  10  Pass 1  IDiag  1:
 E= -323.411212219380     Delta-E=       -0.000000015324 Rises=F Damp=F
 DIIS: error= 7.38D-06 at cycle   2 NSaved=   2.
 NSaved= 2 IEnMin= 2 EnMin= -323.411212219380     IErMin= 2 ErrMin= 7.38D-06
 ErrMax= 7.38D-06  0.00D+00 EMaxC= 1.00D+00 BMatC= 3.07D-09 BMatP= 9.04D-09
 IDIUse=1 WtCom= 1.00D+00 WtEn= 0.00D+00
 Coeff-Com:  0.287D+00 0.713D+00
 Coeff:      0.287D+00 0.713D+00
 Gap=     0.183 Goal=   None    Shift=    0.000
 RMSDP=2.40D-06 MaxDP=3.32D-05 DE=-1.53D-08 OVMax= 5.20D-05

 Cycle  11  Pass 1  IDiag  1:
 E= -323.411212216176     Delta-E=        0.000000003204 Rises=F Damp=F
 DIIS: error= 1.24D-05 at cycle   3 NSaved=   3.
 NSaved= 3 IEnMin= 2 EnMin= -323.411212219380     IErMin= 2 ErrMin= 7.38D-06
 ErrMax= 1.24D-05  0.00D+00 EMaxC= 1.00D+00 BMatC= 6.90D-09 BMatP= 3.07D-09
 IDIUse=1 WtCom= 1.00D+00 WtEn= 0.00D+00
 Coeff-Com:  0.395D-02 0.601D+00 0.395D+00
 Coeff:      0.395D-02 0.601D+00 0.395D+00
 Gap=     0.183 Goal=   None    Shift=    0.000
 RMSDP=1.60D-06 MaxDP=2.30D-05 DE= 3.20D-09 OVMax= 3.35D-05

 Cycle  12  Pass 1  IDiag  1:
 E= -323.411212222180     Delta-E=       -0.000000006004 Rises=F Damp=F
 DIIS: error= 1.43D-06 at cycle   4 NSaved=   4.
 NSaved= 4 IEnMin= 4 EnMin= -323.411212222180     IErMin= 4 ErrMin= 1.43D-06
 ErrMax= 1.43D-06  0.00D+00 EMaxC= 1.00D+00 BMatC= 2.08D-10 BMatP= 3.07D-09
 IDIUse=1 WtCom= 1.00D+00 WtEn= 0.00D+00
 Coeff-Com: -0.212D-01 0.306D+00 0.235D+00 0.480D+00
 Coeff:     -0.212D-01 0.306D+00 0.235D+00 0.480D+00
 Gap=     0.183 Goal=   None    Shift=    0.000
 RMSDP=2.81D-07 MaxDP=3.75D-06 DE=-6.00D-09 OVMax= 4.09D-06

 Cycle  13  Pass 1  IDiag  1:
 E= -323.411212222374     Delta-E=       -0.000000000194 Rises=F Damp=F
 DIIS: error= 2.62D-07 at cycle   5 NSaved=   5.
 NSaved= 5 IEnMin= 5 EnMin= -323.411212222374     IErMin= 5 ErrMin= 2.62D-07
 ErrMax= 2.62D-07  0.00D+00 EMaxC= 1.00D+00 BMatC= 7.45D-12 BMatP= 2.08D-10
 IDIUse=1 WtCom= 1.00D+00 WtEn= 0.00D+00
 Coeff-Com: -0.952D-02 0.982D-01 0.806D-01 0.226D+00 0.605D+00
 Coeff:     -0.952D-02 0.982D-01 0.806D-01 0.226D+00 0.605D+00
 Gap=     0.183 Goal=   None    Shift=    0.000
 RMSDP=6.10D-08 MaxDP=6.62D-07 DE=-1.94D-10 OVMax= 9.64D-07

 Cycle  14  Pass 1  IDiag  1:
 E= -323.411212222378     Delta-E=       -0.000000000004 Rises=F Damp=F
 DIIS: error= 7.55D-08 at cycle   6 NSaved=   6.
[...]
    R2        2.70068   0.00565   0.00000  -0.03119  -0.03119   2.66949
    R3        1.90897  -0.00063   0.00000  -0.01120  -0.01120   1.89776
    R4        2.84260   0.00080   0.00000   0.00289   0.00289   2.84548
    R5        2.54077   0.00396   0.00000  -0.00667  -0.00667   2.53410
    R6        1.84715   0.00010   0.00000  -0.00017  -0.00017   1.84698
    R7        2.07368   0.00000   0.00000   0.00185   0.00185   2.07553
    R8        2.06389  -0.00004   0.00000  -0.00105  -0.00105   2.06284
    R9        2.07979   0.00004   0.00000  -0.00048  -0.00048   2.07931
   R10        2.64095  -0.00137   0.00000  -0.02092  -0.02092   2.62003
   R11        2.61375   0.00041   0.00000   0.01130   0.01130   2.62505
   R12        4.37772  -0.00312   0.00000  -0.09043  -0.09043   4.28729
    A1        2.03881   0.00433   0.00000   0.08107   0.06817   2.10698
    A2        2.03122  -0.01008   0.00000   0.00360  -0.01053   2.02069
    A3        2.08876   0.01114   0.00000   0.05413   0.04079   2.12955
    A4        2.03240  -0.00698   0.00000   0.00169   0.00128   2.03368
    A5        2.12120   0.01338   0.00000  -0.02424  -0.02469   2.09650
    A6        2.12291  -0.00634   0.00000   0.02827   0.02790   2.15081
    A7        1.92651   0.00006   0.00000   0.01862   0.01863   1.94514
    A8        1.94365   0.00001   0.00000  -0.01243  -0.01247   1.93119
    A9        1.93665   0.00011   0.00000  -0.00499  -0.00505   1.93160
   A10        1.90846  -0.00026   0.00000   0.00395   0.00398   1.91244
   A11        1.86443   0.00000   0.00000  -0.00100  -0.00101   1.86342
   A12        1.88184   0.00008   0.00000  -0.00408  -0.00419   1.87766
   A13        2.20296   0.00869   0.00000  -0.02388  -0.02448   2.17848
   A14        2.15332  -0.00390   0.00000   0.00678   0.00615   2.15947
   A15        1.92630  -0.00469   0.00000   0.01497   0.01431   1.94061
   A16        1.60348   0.00333   0.00000   0.03424   0.03424   1.63772
   A17        1.91151   0.00083   0.00000   0.00210   0.00210   1.91360
    D1        1.26816  -0.00703   0.00000  -0.35424  -0.35666   0.91150
    D2       -1.99543  -0.00697   0.00000  -0.30002  -0.30340  -2.29883
    D3       -2.40685   0.00044   0.00000  -0.07977  -0.07638  -2.48323
    D4        0.61275   0.00050   0.00000  -0.02555  -0.02312   0.58962
    D5        1.70790  -0.00739   0.00000   0.31727   0.31410   2.02199
    D6       -0.90252  -0.01905   0.00000   0.02117   0.02435  -0.87818
    D7        0.97149   0.00096   0.00000   0.15416   0.15454   1.12603
    D8        3.09478   0.00067   0.00000   0.16357   0.16388  -3.02453
    D9       -1.09196   0.00085   0.00000   0.14672   0.14712  -0.94484
   D10       -2.04798  -0.00059   0.00000   0.10384   0.10350  -1.94448
   D11        0.07531  -0.00088   0.00000   0.11325   0.11283   0.18814
   D12        2.17175  -0.00070   0.00000   0.09640   0.09608   2.26783
   D13        0.17707  -0.00435   0.00000  -0.06707  -0.06725   0.10983
   D14       -3.00565  -0.00101   0.00000  -0.13880  -0.13849   3.13904
   D15       -3.09284  -0.00423   0.00000  -0.01215  -0.01246  -3.10530
   D16        0.00762  -0.00089   0.00000  -0.08388  -0.08370  -0.07609
   D17        2.83332  -0.00038   0.00000  -0.19321  -0.19272   2.64059
   D18       -0.34367   0.00278   0.00000  -0.25574  -0.25623  -0.59990
         Item               Value     Threshold  Converged?
 Maximum Force            0.019045     0.000450     NO 
 RMS     Force            0.005185     0.000300     NO 
 Maximum Displacement     0.257571     0.001800     NO 
 RMS     Displacement     0.098067     0.001200     NO 
 Predicted change in Energy=-3.975667D-03
 Optimization stopped.
    -- Number of steps exceeded,  NStep=  57
    -- Flag reset to prevent archiving.
                           ----------------------------
                           ! Non-Optimized Parameters !
                           ! (Angstroms and Degrees)  !
 --------------------------                            --------------------------
 ! Name  Definition              Value          Derivative Info.                !
 --------------------------------------------------------------------------------
 ! R1    R(1,2)                  1.0059         -DE/DX =    0.0004              !
 ! R2    R(1,3)                  1.4126         -DE/DX =    0.0056              !
 ! R3    R(1,11)                 1.0043         -DE/DX =   -0.0006              !
 ! R4    R(3,5)                  1.5058         -DE/DX =    0.0008              !
 ! R5    R(3,6)                  1.341          -DE/DX =    0.004               !
 ! R6    R(4,12)                 0.9774         -DE/DX =    0.0001              !
 ! R7    R(5,7)                  1.0983         -DE/DX =    0.0                 !
 ! R8    R(5,8)                  1.0916         -DE/DX =    0.0                 !
 ! R9    R(5,9)                  1.1003         -DE/DX =    0.0                 !
 ! R10   R(6,10)                 1.3865         -DE/DX =   -0.0014              !
 ! R11   R(6,12)                 1.3891         -DE/DX =    0.0004              !
 ! R12   R(11,13)                2.2687         -DE/DX =   -0.0031              !
 ! A1    A(2,1,3)              120.7213         -DE/DX =    0.0043              !
 ! A2    A(2,1,11)             115.777          -DE/DX =   -0.0101              !
 ! A3    A(3,1,11)             122.0142         -DE/DX =    0.0111              !
 ! A4    A(1,3,5)              116.5213         -DE/DX =   -0.007               !
 ! A5    A(1,3,6)              120.1208         -DE/DX =    0.0134              !
 ! A6    A(5,3,6)              123.2326         -DE/DX =   -0.0063              !
 ! A7    A(3,5,7)              111.4484         -DE/DX =    0.0001              !
 ! A8    A(3,5,8)              110.649          -DE/DX =    0.0                 !
 ! A9    A(3,5,9)              110.6724         -DE/DX =    0.0001              !
 ! A10   A(7,5,8)              109.5748         -DE/DX =   -0.0003              !
 ! A11   A(7,5,9)              106.7661         -DE/DX =    0.0                 !
 ! A12   A(8,5,9)              107.5818         -DE/DX =    0.0001              !
 ! A13   A(3,6,10)             124.8178         -DE/DX =    0.0087              !
 ! A14   A(3,6,12)             123.7283         -DE/DX =   -0.0039              !
 ! A15   A(10,6,12)            111.189          -DE/DX =   -0.0047              !
 ! A16   A(1,11,13)             93.8347         -DE/DX =    0.0033              !
 ! A17   A(4,12,6)             109.6413         -DE/DX =    0.0008              !
 ! D1    D(2,1,3,5)             52.2249         -DE/DX =   -0.007               !
 ! D2    D(2,1,3,6)           -131.7132         -DE/DX =   -0.007               !
 ! D3    D(11,1,3,5)          -142.2789         -DE/DX =    0.0004              !
 ! D4    D(11,1,3,6)            33.783          -DE/DX =    0.0005              !
 ! D5    D(2,1,11,13)          115.8516         -DE/DX =   -0.0074              !
 ! D6    D(3,1,11,13)          -50.3157         -DE/DX =   -0.019               !
 ! D7    D(1,3,5,7)             64.5169         -DE/DX =    0.001               !
 ! D8    D(1,3,5,8)           -173.2929         -DE/DX =    0.0007              !
 ! D9    D(1,3,5,9)            -54.1354         -DE/DX =    0.0008              !
 ! D10   D(6,3,5,7)           -111.4105         -DE/DX =   -0.0006              !
 ! D11   D(6,3,5,8)             10.7797         -DE/DX =   -0.0009              !
 ! D12   D(6,3,5,9)            129.9372         -DE/DX =   -0.0007              !
 ! D13   D(1,3,6,10)             6.2926         -DE/DX =   -0.0043              !
 ! D14   D(1,3,6,12)           179.8537         -DE/DX =   -0.001               !
 ! D15   D(5,3,6,10)          -177.9206         -DE/DX =   -0.0042              !
 ! D16   D(5,3,6,12)            -4.3594         -DE/DX =   -0.0009              !
 ! D17   D(3,6,12,4)           151.2949         -DE/DX =   -0.0004              !
 ! D18   D(10,6,12,4)          -34.3718         -DE/DX =    0.0028              !
 --------------------------------------------------------------------------------
 Lowest energy point so far.  Saving SCF results.
 GradGradGradGradGradGradGradGradGradGradGradGradGradGradGradGradGradGrad

 Largest change from initial coordinates is atom   13       1.247 Angstoms.
 Leave Link  103 at Tue Apr 12 21:17:10 2016, MaxMem=    33554432 cpu:         0.0
 (Enter /usr/local/gau/g09/l202.exe)
                          Input orientation:                          
 ---------------------------------------------------------------------
 Center     Atomic      Atomic             Coordinates (Angstroms)
 Number     Number       Type             X           Y           Z
 ---------------------------------------------------------------------
      1          7           0        1.389645    1.086751    0.146022
      2          1           0        2.006798    1.389435   -0.595270
      3          6           0        0.727940   -0.166618   -0.037425
      4          1           0       -2.248929   -1.270387   -0.020805
      5          6           0        1.580088   -1.399401    0.092269
      6          6           0       -0.607472   -0.243544   -0.173366
      7          1           0        2.088617   -1.411908    1.064589
      8          1           0        0.984134   -2.308206   -0.016078
      9          1           0        2.365655   -1.417875   -0.678323
     10          8           0       -1.482263    0.831027   -0.355376
     11          1           0        0.940355    1.815830    0.681789
     12          8           0       -1.302329   -1.439249   -0.196530
     13          1           0       -1.000631    1.645412   -0.571257
 ---------------------------------------------------------------------
                    Distance matrix (angstroms):
                    1          2          3          4          5
     1  N    0.000000
     2  H    1.010944   0.000000
     3  C    1.429140   2.089969   0.000000
     4  H    4.338566   5.051324   3.174954   0.000000
     5  C    2.494015   2.903859   1.504238   3.832859   0.000000
     6  C    2.420779   3.111114   1.344516   1.942180   2.488371
     7  H    2.752385   3.257200   2.148633   4.473524   1.097345
     8  H    3.422929   3.879930   2.156962   3.395554   1.092166
     9  H    2.811635   2.831372   2.158357   4.663525   1.100576
    10  O    2.926543   3.541598   2.445688   2.261781   3.814865
    11  H    1.010181   1.717554   2.119550   4.493318   3.330842
    12  O    3.707390   4.371587   2.401436   0.977469   2.897123
    13  H    2.557345   3.018399   2.560545   3.219181   4.046142
                    6          7          8          9         10
     6  C    0.000000
     7  H    3.188496   0.000000
     8  H    2.611662   1.786358   0.000000
     9  H    3.236282   1.764802   1.771964   0.000000
    10  O    1.397530   4.449522   4.006622   4.468594   0.000000
    11  H    2.714421   3.447222   4.182894   3.786586   2.813295
    12  O    1.383139   3.617967   2.452664   3.699552   2.282929
    13  H    1.970037   4.643991   4.458543   4.552700   0.970462
                   11         12         13
    11  H    0.000000
    12  O    4.049274   0.000000
    13  H    2.316591   3.121951   0.000000
 Stoichiometry    C3H7NO2
 Framework group  C1[X(C3H7NO2)]
 Deg. of freedom    33
 Full point group                 C1      NOp   1
 RotChk:  IX=1 Diff= 2.08D-15
 Largest Abelian subgroup         C1      NOp   1
 Largest concise Abelian subgroup C1      NOp   1
                         Standard orientation:                         
 ---------------------------------------------------------------------
 Center     Atomic      Atomic             Coordinates (Angstroms)
 Number     Number       Type             X           Y           Z
 ---------------------------------------------------------------------
      1          7           0        1.356170   -1.279423   -0.106840
      2          1           0        1.883348   -1.598819    0.694457
      3          6           0        0.671314   -0.032275    0.027459
      4          1           0       -2.288346    1.065399   -0.312909
      5          6           0        1.526716    1.205068    0.028550
      6          6           0       -0.671181    0.038544    0.007101
      7          1           0        2.145994    1.242342   -0.876586
      8          1           0        0.917684    2.109722    0.087768
      9          1           0        2.216109    1.206368    0.886456
     10          8           0       -1.556000   -1.041957    0.059077
     11          1           0        0.976602   -1.996146   -0.709087
     12          8           0       -1.369824    1.231887   -0.023006
     13          1           0       -1.099090   -1.860366    0.310549
 ---------------------------------------------------------------------
 Rotational constants (GHZ):      4.8745422      3.2072558      1.9798643
 Leave Link  202 at Tue Apr 12 21:17:10 2016, MaxMem=    33554432 cpu:         0.0
 (Enter /usr/local/gau/g09/l601.exe)
 Copying SCF densities to generalized density rwf, IOpCl= 0 IROHF=0.

 **********************************************************************

            Population analysis using the SCF density.

 **********************************************************************

 Orbital symmetries:
       Occupied  (A) (A) (A) (A) (A) (A) (A) (A) (A) (A) (A) (A)
                 (A) (A) (A) (A) (A) (A) (A) (A) (A) (A) (A) (A)
       Virtual   (A) (A) (A) (A) (A) (A) (A) (A) (A) (A) (A) (A)
                 (A) (A) (A) (A) (A) (A) (A) (A) (A) (A) (A) (A)
                 (A) (A) (A) (A) (A) (A) (A) (A) (A) (A) (A) (A)
                 (A) (A) (A) (A) (A) (A) (A) (A)
 The electronic state is 1-A.
 Alpha  occ. eigenvalues --  -19.17673 -19.16568 -14.32113 -10.28272 -10.20136
 Alpha  occ. eigenvalues --  -10.15923  -1.09246  -1.02461  -0.89199  -0.74997
 Alpha  occ. eigenvalues --   -0.67499  -0.59459  -0.56220  -0.51671  -0.48053
 Alpha  occ. eigenvalues --   -0.42954  -0.41141  -0.38669  -0.38304  -0.36426
 Alpha  occ. eigenvalues --   -0.35601  -0.31501  -0.26017  -0.18254
 Alpha virt. eigenvalues --    0.04355   0.06272   0.07957   0.11013   0.14725
 Alpha virt. eigenvalues --    0.16067   0.18329   0.19589   0.21666   0.23564
 Alpha virt. eigenvalues --    0.26755   0.39186   0.46434   0.54686   0.58176
 Alpha virt. eigenvalues --    0.60186   0.62106   0.64275   0.65169   0.68921
 Alpha virt. eigenvalues --    0.73334   0.74363   0.78933   0.81117   0.81970
 Alpha virt. eigenvalues --    0.84153   0.91430   0.91976   0.93476   0.95179
 Alpha virt. eigenvalues --    0.96023   0.97421   0.99013   1.01419   1.04107
 Alpha virt. eigenvalues --    1.09260   1.16522   1.23192   1.26867   1.33845
 Alpha virt. eigenvalues --    1.39076   1.57004   1.73183   2.03508
          Condensed to atoms (all electrons):
               1          2          3          4          5          6
     1  N    6.999192   0.318508   0.284509  -0.000156  -0.076566  -0.089507
     2  H    0.318508   0.450059  -0.033045  -0.000002  -0.000494   0.001556
     3  C    0.284509  -0.033045   5.138630   0.008572   0.322721   0.388384
     4  H   -0.000156  -0.000002   0.008572   0.386186  -0.000267  -0.025457
     5  C   -0.076566  -0.000494   0.322721  -0.000267   5.117170  -0.022591
     6  C   -0.089507   0.001556   0.388384  -0.025457  -0.022591   4.878526
     7  H    0.004995  -0.000869  -0.037523   0.000023   0.362190  -0.000489
     8  H    0.004147  -0.000194  -0.034330   0.000099   0.368171  -0.001807
     9  H   -0.002362   0.003210  -0.040539  -0.000020   0.366617   0.000511
    10  O   -0.015639   0.000107  -0.108829  -0.000344   0.003421   0.238987
    11  H    0.335998  -0.037033  -0.043778   0.000015   0.003858  -0.001761
    12  O    0.002256  -0.000045  -0.078890   0.243172  -0.002035   0.240696
    13  H    0.021061   0.000657  -0.009712  -0.000342   0.000575  -0.022906
               7          8          9         10         11         12
     1  N    0.004995   0.004147  -0.002362  -0.015639   0.335998   0.002256
     2  H   -0.000869  -0.000194   0.003210   0.000107  -0.037033  -0.000045
     3  C   -0.037523  -0.034330  -0.040539  -0.108829  -0.043778  -0.078890
     4  H    0.000023   0.000099  -0.000020  -0.000344   0.000015   0.243172
     5  C    0.362190   0.368171   0.366617   0.003421   0.003858  -0.002035
     6  C   -0.000489  -0.001807   0.000511   0.238987  -0.001761   0.240696
     7  H    0.588622  -0.023767  -0.039906  -0.000020   0.000352   0.000566
     8  H   -0.023767   0.545849  -0.029957   0.000097  -0.000136   0.004444
     9  H   -0.039906  -0.029957   0.616824  -0.000030  -0.000241   0.000275
    10  O   -0.000020   0.000097  -0.000030   8.348171   0.003948  -0.084814
    11  H    0.000352  -0.000136  -0.000241   0.003948   0.444256   0.000094
    12  O    0.000566   0.004444   0.000275  -0.084814   0.000094   8.272667
    13  H   -0.000029  -0.000055   0.000002   0.226681   0.001836   0.004924
              13
     1  N    0.021061
     2  H    0.000657
     3  C   -0.009712
     4  H   -0.000342
     5  C    0.000575
     6  C   -0.022906
     7  H   -0.000029
     8  H   -0.000055
     9  H    0.000002
    10  O    0.226681
    11  H    0.001836
    12  O    0.004924
    13  H    0.410346
 Mulliken charges:
               1
     1  N   -0.786437
     2  H    0.297584
     3  C    0.243830
     4  H    0.388521
     5  C   -0.442770
     6  C    0.415858
     7  H    0.145855
     8  H    0.167438
     9  H    0.125614
    10  O   -0.611736
    11  H    0.292593
    12  O   -0.603312
    13  H    0.366961
 Sum of Mulliken charges =   0.00000
 Mulliken charges with hydrogens summed into heavy atoms:
               1
     1  N   -0.196259
     3  C    0.243830
     5  C   -0.003863
     6  C    0.415858
    10  O   -0.244774
    12  O   -0.214791
 Electronic spatial extent (au):  <R**2>=            613.8452
 Charge=              0.0000 electrons
 Dipole moment (field-independent basis, Debye):
    X=             -0.0822    Y=             -2.4442    Z=              0.3183  Tot=              2.4662
 Quadrupole moment (field-independent basis, Debye-Ang):
   XX=            -35.3296   YY=            -31.5172   ZZ=            -36.3323
   XY=             -1.7679   XZ=              3.1191   YZ=             -1.8584
 Traceless Quadrupole moment (field-independent basis, Debye-Ang):
   XX=             -0.9366   YY=              2.8759   ZZ=             -1.9393
   XY=             -1.7679   XZ=              3.1191   YZ=             -1.8584
 Octapole moment (field-independent basis, Debye-Ang**2):
  XXX=            -20.4769  YYY=            -24.0116  ZZZ=              0.0398  XYY=             -0.8160
  XXY=              7.4422  XXZ=              1.7978  XZZ=             -2.1537  YZZ=             -3.0829
  YYZ=              0.5058  XYZ=              0.3605
 Hexadecapole moment (field-independent basis, Debye-Ang**3):
 XXXX=           -394.9801 YYYY=           -252.5532 ZZZZ=            -44.2851 XXXY=            -34.1919
 XXXZ=             19.8238 YYYX=             -4.0222 YYYZ=             -1.8240 ZZZX=              2.0205
 ZZZY=             -1.6063 XXYY=           -109.2451 XXZZ=            -73.9173 YYZZ=            -52.1314
 XXYZ=            -12.6164 YYXZ=              1.9603 ZZXY=             -3.6703
 N-N= 2.453137263093D+02 E-N=-1.248647047153D+03  KE= 3.218045179171D+02
 No NMR shielding tensors so no spin-rotation constants.
 Leave Link  601 at Tue Apr 12 21:17:10 2016, MaxMem=    33554432 cpu:         0.1
 (Enter /usr/local/gau/g09/l9999.exe)


 TIMES HAVE CHANGED. IN THE BIBLE WHEN AN ASS
 SPOKE IT WAS CONSIDERED A MIRACLE.
 Error termination request processed by link 9999.
 Error termination via Lnk1e in /usr/local/gau/g09/l9999.exe at Tue Apr 12 21:17:10 2016.
 Job cpu time:       0 days  0 hours 16 minutes 35.8 seconds.
 File lengths (MBytes):  RWF=     12 Int=      0 D2E=      0 Chk=      2 Scr=      1
