 Entering Gaussian System, Link 0=g09
 Input=Ser-S-opt-6-311++g(d,p).com
 Output=Ser-S-opt-6-311++g(d,p).log
 Initial command:
 /usr/local/gau/g09/l1.exe "/tmp/Gau-21426.inp" -scrdir="/tmp/"
 Entering Link 1 = /usr/local/gau/g09/l1.exe PID=     21428.
  
 Copyright (c) 1988,1990,1992,1993,1995,1998,2003,2009,2013,
            Gaussian, Inc.  All Rights Reserved.
  
 This is part of the Gaussian(R) 09 program.  It is based on
 the Gaussian(R) 03 system (copyright 2003, Gaussian, Inc.),
 the Gaussian(R) 98 system (copyright 1998, Gaussian, Inc.),
 the Gaussian(R) 94 system (copyright 1995, Gaussian, Inc.),
 the Gaussian 92(TM) system (copyright 1992, Gaussian, Inc.),
 the Gaussian 90(TM) system (copyright 1990, Gaussian, Inc.),
 the Gaussian 88(TM) system (copyright 1988, Gaussian, Inc.),
 the Gaussian 86(TM) system (copyright 1986, Carnegie Mellon
 University), and the Gaussian 82(TM) system (copyright 1983,
 Carnegie Mellon University). Gaussian is a federally registered
 trademark of Gaussian, Inc.
  
 This software contains proprietary and confidential information,
 including trade secrets, belonging to Gaussian, Inc.
  
 This software is provided under written license and may be
 used, copied, transmitted, or stored only in accord with that
 written license.
  
 The following legend is applicable only to US Government
 contracts under FAR:
  
                    RESTRICTED RIGHTS LEGEND
  
 Use, reproduction and disclosure by the US Government is
 subject to restrictions as set forth in subparagraphs (a)
 and (c) of the Commercial Computer Software - Restricted
 Rights clause in FAR 52.227-19.
  
 Gaussian, Inc.
 340 Quinnipiac St., Bldg. 40, Wallingford CT 06492
  
  
 ---------------------------------------------------------------
 Warning -- This program may not be used in any manner that
 competes with the business of Gaussian, Inc. or will provide
 assistance to any competitor of Gaussian, Inc.  The licensee
 of this program is prohibited from giving any competitor of
 Gaussian, Inc. access to this program.  By using this program,
 the user acknowledges that Gaussian, Inc. is engaged in the
 business of creating and licensing software in the field of
 computational chemistry and represents and warrants to the
 licensee that it is not a competitor of Gaussian, Inc. and that
 it will not use this program in any manner prohibited above.
 ---------------------------------------------------------------
  

 Cite this work as:
 Gaussian 09, Revision D.01,
 M. J. Frisch, G. W. Trucks, H. B. Schlegel, G. E. Scuseria, 
 M. A. Robb, J. R. Cheeseman, G. Scalmani, V. Barone, B. Mennucci, 
 G. A. Petersson, H. Nakatsuji, M. Caricato, X. Li, H. P. Hratchian, 
 A. F. Izmaylov, J. Bloino, G. Zheng, J. L. Sonnenberg, M. Hada, 
 M. Ehara, K. Toyota, R. Fukuda, J. Hasegawa, M. Ishida, T. Nakajima, 
 Y. Honda, O. Kitao, H. Nakai, T. Vreven, J. A. Montgomery, Jr., 
 J. E. Peralta, F. Ogliaro, M. Bearpark, J. J. Heyd, E. Brothers, 
 K. N. Kudin, V. N. Staroverov, T. Keith, R. Kobayashi, J. Normand, 
 K. Raghavachari, A. Rendell, J. C. Burant, S. S. Iyengar, J. Tomasi, 
 M. Cossi, N. Rega, J. M. Millam, M. Klene, J. E. Knox, J. B. Cross, 
 V. Bakken, C. Adamo, J. Jaramillo, R. Gomperts, R. E. Stratmann, 
 O. Yazyev, A. J. Austin, R. Cammi, C. Pomelli, J. W. Ochterski, 
 R. L. Martin, K. Morokuma, V. G. Zakrzewski, G. A. Voth, 
 P. Salvador, J. J. Dannenberg, S. Dapprich, A. D. Daniels, 
 O. Farkas, J. B. Foresman, J. V. Ortiz, J. Cioslowski, 
 and D. J. Fox, Gaussian, Inc., Wallingford CT, 2013.
 
 ******************************************
 Gaussian 09:  ES64L-G09RevD.01 24-Apr-2013
                28-Mar-2016 
 ******************************************
 %chk=Ser-S-opt-6-311gdp.chk
 -------------------------------------------
 # opt b3lyp/6-311++g(d,p) geom=connectivity
 -------------------------------------------
 1/14=-1,18=20,19=15,26=3,38=1,57=2/1,3;
 2/9=110,12=2,17=6,18=5,40=1/2;
 3/5=4,6=6,7=1111,11=2,16=1,25=1,30=1,71=1,74=-5/1,2,3;
 4//1;
 5/5=2,38=5/2;
 6/7=2,8=2,9=2,10=2,28=1/1;
 7//1,2,3,16;
 1/14=-1,18=20,19=15,26=3/3(2);
 2/9=110/2;
 99//99;
 2/9=110/2;
 3/5=4,6=6,7=1111,11=2,16=1,25=1,30=1,71=1,74=-5/1,2,3;
 4/5=5,16=3,69=1/1;
 5/5=2,38=5/2;
 7//1,2,3,16;
 1/14=-1,18=20,19=15,26=3/3(-5);
 2/9=110/2;
 6/7=2,8=2,9=2,10=2,19=2,28=1/1;
 99/9=1/99;
 -----------------------
 Ser-S-opt-6-311++g(d,p)
 -----------------------
 Symbolic Z-matrix:
 Charge =  0 Multiplicity = 1
 N                    -0.09402   2.0075    0.10341 
 H                     0.10149   2.19726  -0.87323 
 C                    -0.25146   0.58981   0.42546 
 H                    -0.28056   0.46983   1.50958 
 C                    -1.56463   0.07849  -0.16627 
 C                     0.90748  -0.2363   -0.12326 
 H                    -2.38865   0.67045   0.24772 
 H                    -1.54135   0.20581  -1.25735 
 O                    -1.66518  -1.32433   0.20195 
 O                     1.17005  -0.3652   -1.32418 
 H                    -2.34667  -1.7774   -0.32999 
 H                     0.49086   2.5371    0.73616 
 O                     1.6992   -0.76895   0.86645 
 H                     2.44207  -1.27969   0.4739 
 

 GradGradGradGradGradGradGradGradGradGradGradGradGradGradGradGradGradGrad
 Berny optimization.
 Initialization pass.
                           ----------------------------
                           !    Initial Parameters    !
                           ! (Angstroms and Degrees)  !
 --------------------------                            --------------------------
 ! Name  Definition              Value          Derivative Info.                !
 --------------------------------------------------------------------------------
 ! R1    R(1,2)                  1.0139         estimate D2E/DX2                !
 ! R2    R(1,3)                  1.4623         estimate D2E/DX2                !
 ! R3    R(1,12)                 1.0114         estimate D2E/DX2                !
 ! R4    R(3,4)                  1.0911         estimate D2E/DX2                !
 ! R5    R(3,5)                  1.5284         estimate D2E/DX2                !
 ! R6    R(3,6)                  1.5253         estimate D2E/DX2                !
 ! R7    R(5,7)                  1.0958         estimate D2E/DX2                !
 ! R8    R(5,8)                  1.0987         estimate D2E/DX2                !
 ! R9    R(5,9)                  1.4538         estimate D2E/DX2                !
 ! R10   R(6,10)                 1.236          estimate D2E/DX2                !
 ! R11   R(6,13)                 1.3748         estimate D2E/DX2                !
 ! R12   R(9,11)                 0.976          estimate D2E/DX2                !
 ! R13   R(13,14)                0.9833         estimate D2E/DX2                !
 ! A1    A(2,1,3)              114.4773         estimate D2E/DX2                !
 ! A2    A(2,1,12)             113.1474         estimate D2E/DX2                !
 ! A3    A(3,1,12)             115.6032         estimate D2E/DX2                !
 ! A4    A(1,3,4)              109.1656         estimate D2E/DX2                !
 ! A5    A(1,3,5)              109.3649         estimate D2E/DX2                !
 ! A6    A(1,3,6)              111.3487         estimate D2E/DX2                !
 ! A7    A(4,3,5)              108.9635         estimate D2E/DX2                !
 ! A8    A(4,3,6)              108.5495         estimate D2E/DX2                !
 ! A9    A(5,3,6)              109.4102         estimate D2E/DX2                !
 ! A10   A(3,5,7)              108.6075         estimate D2E/DX2                !
 ! A11   A(3,5,8)              109.1163         estimate D2E/DX2                !
 ! A12   A(3,5,9)              106.5099         estimate D2E/DX2                !
 ! A13   A(7,5,8)              109.1775         estimate D2E/DX2                !
 ! A14   A(7,5,9)              111.9349         estimate D2E/DX2                !
 ! A15   A(8,5,9)              111.3952         estimate D2E/DX2                !
 ! A16   A(3,6,10)             124.5689         estimate D2E/DX2                !
 ! A17   A(3,6,13)             112.8561         estimate D2E/DX2                !
 ! A18   A(10,6,13)            122.4592         estimate D2E/DX2                !
 ! A19   A(5,9,11)             110.9872         estimate D2E/DX2                !
 ! A20   A(6,13,14)            110.4223         estimate D2E/DX2                !
 ! D1    D(2,1,3,4)            170.0429         estimate D2E/DX2                !
 ! D2    D(2,1,3,5)            -70.8253         estimate D2E/DX2                !
 ! D3    D(2,1,3,6)             50.2113         estimate D2E/DX2                !
 ! D4    D(12,1,3,4)            35.8487         estimate D2E/DX2                !
 ! D5    D(12,1,3,5)           154.9805         estimate D2E/DX2                !
 ! D6    D(12,1,3,6)           -83.9829         estimate D2E/DX2                !
 ! D7    D(1,3,5,7)            -58.6359         estimate D2E/DX2                !
 ! D8    D(1,3,5,8)             60.2808         estimate D2E/DX2                !
 ! D9    D(1,3,5,9)           -179.3596         estimate D2E/DX2                !
 ! D10   D(4,3,5,7)             60.621          estimate D2E/DX2                !
 ! D11   D(4,3,5,8)            179.5377         estimate D2E/DX2                !
 ! D12   D(4,3,5,9)            -60.1028         estimate D2E/DX2                !
 ! D13   D(6,3,5,7)            179.1579         estimate D2E/DX2                !
 ! D14   D(6,3,5,8)            -61.9254         estimate D2E/DX2                !
 ! D15   D(6,3,5,9)             58.4342         estimate D2E/DX2                !
 ! D16   D(1,3,6,10)           -63.4926         estimate D2E/DX2                !
 ! D17   D(1,3,6,13)           112.6675         estimate D2E/DX2                !
 ! D18   D(4,3,6,10)           176.3116         estimate D2E/DX2                !
 ! D19   D(4,3,6,13)            -7.5283         estimate D2E/DX2                !
 ! D20   D(5,3,6,10)            57.5175         estimate D2E/DX2                !
 ! D21   D(5,3,6,13)          -126.3224         estimate D2E/DX2                !
 ! D22   D(3,5,9,11)          -164.9351         estimate D2E/DX2                !
 ! D23   D(7,5,9,11)            76.5009         estimate D2E/DX2                !
 ! D24   D(8,5,9,11)           -46.0549         estimate D2E/DX2                !
 ! D25   D(3,6,13,14)         -178.9954         estimate D2E/DX2                !
 ! D26   D(10,6,13,14)          -2.7426         estimate D2E/DX2                !
 --------------------------------------------------------------------------------
 Trust Radius=3.00D-01 FncErr=1.00D-07 GrdErr=1.00D-06
 Number of steps in this run=     69 maximum allowed number of steps=    100.
 GradGradGradGradGradGradGradGradGradGradGradGradGradGradGradGradGradGrad

                          Input orientation:                          
 ---------------------------------------------------------------------
 Center     Atomic      Atomic             Coordinates (Angstroms)
 Number     Number       Type             X           Y           Z
 ---------------------------------------------------------------------
      1          7           0       -0.094019    2.007502    0.103412
      2          1           0        0.101491    2.197263   -0.873232
      3          6           0       -0.251457    0.589814    0.425455
      4          1           0       -0.280555    0.469825    1.509575
      5          6           0       -1.564626    0.078486   -0.166272
      6          6           0        0.907475   -0.236300   -0.123256
      7          1           0       -2.388648    0.670452    0.247722
      8          1           0       -1.541347    0.205808   -1.257352
      9          8           0       -1.665180   -1.324331    0.201954
     10          8           0        1.170051   -0.365203   -1.324179
     11          1           0       -2.346666   -1.777404   -0.329994
     12          1           0        0.490864    2.537102    0.736158
     13          8           0        1.699202   -0.768950    0.866447
     14          1           0        2.442065   -1.279688    0.473899
 ---------------------------------------------------------------------
                    Distance matrix (angstroms):
                    1          2          3          4          5
     1  N    0.000000
     2  H    1.013936   0.000000
     3  C    1.462306   2.096438   0.000000
     4  H    2.092018   2.967789   1.091128   0.000000
     5  C    2.440598   2.786567   1.528401   2.147195   0.000000
     6  C    2.467593   2.671012   1.525343   2.139197   2.492433
     7  H    2.659671   3.128655   2.146084   2.465072   1.095823
     8  H    2.681891   2.610049   2.154789   3.052079   1.098730
     9  O    3.685019   4.083966   2.390087   2.616497   1.453822
    10  O    3.043948   2.812722   2.448257   3.291153   3.002677
    11  H    4.425808   4.699634   3.250281   3.564108   2.020574
    12  H    1.011401   1.690337   2.107014   2.338139   3.329296
    13  O    3.392131   3.791778   2.417806   2.422316   3.526646
    14  H    4.168285   4.402526   3.279092   3.397952   4.278788
                    6          7          8          9         10
     6  C    0.000000
     7  H    3.438641   0.000000
     8  H    2.734659   1.788592   0.000000
     9  O    2.812139   2.122418   2.118073   0.000000
    10  O    1.236033   4.025890   2.771678   3.359694   0.000000
    11  H    3.606546   2.515456   2.332737   0.976047   3.917909
    12  H    2.933243   3.466200   3.679524   4.454724   3.623487
    13  O    1.374794   4.377810   3.995226   3.474056   2.289510
    14  H    1.949415   5.214402   4.590370   4.116480   2.384824
                   11         12         13         14
    11  H    0.000000
    12  H    5.272876   0.000000
    13  O    4.337914   3.522362   0.000000
    14  H    4.881179   4.294630   0.983256   0.000000
 Stoichiometry    C3H7NO3
 Framework group  C1[X(C3H7NO3)]
 Deg. of freedom    36
 Full point group                 C1      NOp   1
 Largest Abelian subgroup         C1      NOp   1
 Largest concise Abelian subgroup C1      NOp   1
                         Standard orientation:                         
 ---------------------------------------------------------------------
 Center     Atomic      Atomic             Coordinates (Angstroms)
 Number     Number       Type             X           Y           Z
 ---------------------------------------------------------------------
      1          7           0        0.094020    2.007502   -0.103412
      2          1           0       -0.101490    2.197263    0.873232
      3          6           0        0.251457    0.589814   -0.425455
      4          1           0        0.280555    0.469825   -1.509575
      5          6           0        1.564626    0.078485    0.166272
      6          6           0       -0.907475   -0.236300    0.123256
      7          1           0        2.388648    0.670451   -0.247722
      8          1           0        1.541347    0.205807    1.257352
      9          8           0        1.665180   -1.324332   -0.201954
     10          8           0       -1.170051   -0.365203    1.324179
     11          1           0        2.346665   -1.777405    0.329994
     12          1           0       -0.490863    2.537102   -0.736158
     13          8           0       -1.699202   -0.768949   -0.866447
     14          1           0       -2.442065   -1.279687   -0.473899
 ---------------------------------------------------------------------
 Rotational constants (GHZ):      3.0284051      2.2802460      1.7403388
 Standard basis: 6-311++G(d,p) (5D, 7F)
 There are   210 symmetry adapted cartesian basis functions of A   symmetry.
 There are   203 symmetry adapted basis functions of A   symmetry.
   203 basis functions,   315 primitive gaussians,   210 cartesian basis functions
    28 alpha electrons       28 beta electrons
       nuclear repulsion energy       321.5054516866 Hartrees.
 NAtoms=   14 NActive=   14 NUniq=   14 SFac= 1.00D+00 NAtFMM=   60 NAOKFM=F Big=F
 Integral buffers will be    131072 words long.
 Raffenetti 2 integral format.
 Two-electron integral symmetry is turned on.
 One-electron integrals computed using PRISM.
 NBasis=   203 RedAO= T EigKep=  1.86D-05  NBF=   203
 NBsUse=   203 1.00D-06 EigRej= -1.00D+00 NBFU=   203
 ExpMin= 3.60D-02 ExpMax= 8.59D+03 ExpMxC= 1.30D+03 IAcc=3 IRadAn=         5 AccDes= 0.00D+00
 Harris functional with IExCor=  402 and IRadAn=       5 diagonalized for initial guess.
 HarFok:  IExCor=  402 AccDes= 0.00D+00 IRadAn=         5 IDoV= 1 UseB2=F ITyADJ=14
 ICtDFT=  3500011 ScaDFX=  1.000000  1.000000  1.000000  1.000000
 FoFCou: FMM=F IPFlag=           0 FMFlag=      100000 FMFlg1=           0
         NFxFlg=           0 DoJE=T BraDBF=F KetDBF=T FulRan=T
         wScrn=  0.000000 ICntrl=     500 IOpCl=  0 I1Cent=   200000004 NGrid=           0
         NMat0=    1 NMatS0=      1 NMatT0=    0 NMatD0=    1 NMtDS0=    0 NMtDT0=    0
 Petite list used in FoFCou.
 Requested convergence on RMS density matrix=1.00D-08 within 128 cycles.
 Requested convergence on MAX density matrix=1.00D-06.
 Requested convergence on             energy=1.00D-06.
 No special actions if energy rises.
 SCF Done:  E(RB3LYP) =  -399.087465567     A.U. after   14 cycles
            NFock= 14  Conv=0.19D-08     -V/T= 2.0043

 **********************************************************************

            Population analysis using the SCF density.

 **********************************************************************

 Orbital symmetries:
       Occupied  (A) (A) (A) (A) (A) (A) (A) (A) (A) (A) (A) (A)
                 (A) (A) (A) (A) (A) (A) (A) (A) (A) (A) (A) (A)
                 (A) (A) (A) (A)
       Virtual   (A) (A) (A) (A) (A) (A) (A) (A) (A) (A) (A) (A)
                 (A) (A) (A) (A) (A) (A) (A) (A) (A) (A) (A) (A)
                 (A) (A) (A) (A) (A) (A) (A) (A) (A) (A) (A) (A)
                 (A) (A) (A) (A) (A) (A) (A) (A) (A) (A) (A) (A)
                 (A) (A) (A) (A) (A) (A) (A) (A) (A) (A) (A) (A)
                 (A) (A) (A) (A) (A) (A) (A) (A) (A) (A) (A) (A)
                 (A) (A) (A) (A) (A) (A) (A) (A) (A) (A) (A) (A)
                 (A) (A) (A) (A) (A) (A) (A) (A) (A) (A) (A) (A)
                 (A) (A) (A) (A) (A) (A) (A) (A) (A) (A) (A) (A)
                 (A) (A) (A) (A) (A) (A) (A) (A) (A) (A) (A) (A)
                 (A) (A) (A) (A) (A) (A) (A) (A) (A) (A) (A) (A)
                 (A) (A) (A) (A) (A) (A) (A) (A) (A) (A) (A) (A)
                 (A) (A) (A) (A) (A) (A) (A) (A) (A) (A) (A) (A)
                 (A) (A) (A) (A) (A) (A) (A) (A) (A) (A) (A) (A)
                 (A) (A) (A) (A) (A) (A) (A)
 The electronic state is 1-A.
 Alpha  occ. eigenvalues --  -19.18070 -19.13610 -19.12341 -14.31577 -10.31610
 Alpha  occ. eigenvalues --  -10.23191 -10.23063  -1.10475  -1.02621  -1.01801
 Alpha  occ. eigenvalues --   -0.90722  -0.75676  -0.67727  -0.59504  -0.54507
 Alpha  occ. eigenvalues --   -0.53262  -0.49246  -0.48942  -0.46215  -0.44850
 Alpha  occ. eigenvalues --   -0.42046  -0.40637  -0.39330  -0.35242  -0.33016
 Alpha  occ. eigenvalues --   -0.29795  -0.29388  -0.25693
 Alpha virt. eigenvalues --   -0.02459  -0.01427  -0.00553   0.00017   0.01624
 Alpha virt. eigenvalues --    0.02964   0.04641   0.05198   0.06806   0.07605
 Alpha virt. eigenvalues --    0.08405   0.09711   0.09831   0.09946   0.10800
 Alpha virt. eigenvalues --    0.11881   0.12393   0.12670   0.13304   0.14854
 Alpha virt. eigenvalues --    0.15402   0.16080   0.17029   0.18130   0.18420
 Alpha virt. eigenvalues --    0.19347   0.19821   0.22160   0.22597   0.22740
 Alpha virt. eigenvalues --    0.24085   0.24566   0.25856   0.27343   0.27765
 Alpha virt. eigenvalues --    0.28074   0.29259   0.29765   0.30451   0.31025
 Alpha virt. eigenvalues --    0.32469   0.33538   0.34002   0.34692   0.35970
 Alpha virt. eigenvalues --    0.37969   0.38454   0.40100   0.46010   0.48644
 Alpha virt. eigenvalues --    0.52582   0.53672   0.54712   0.55827   0.57339
 Alpha virt. eigenvalues --    0.59565   0.61737   0.62978   0.63258   0.66766
 Alpha virt. eigenvalues --    0.67717   0.69430   0.70835   0.73809   0.75303
 Alpha virt. eigenvalues --    0.81760   0.82355   0.84056   0.88903   0.94297
 Alpha virt. eigenvalues --    0.97817   1.02082   1.06198   1.08306   1.09354
 Alpha virt. eigenvalues --    1.11585   1.13246   1.15567   1.17373   1.19765
 Alpha virt. eigenvalues --    1.20838   1.24024   1.26023   1.29192   1.33442
 Alpha virt. eigenvalues --    1.38112   1.42085   1.44865   1.46362   1.48307
 Alpha virt. eigenvalues --    1.52735   1.53982   1.54984   1.57570   1.60311
 Alpha virt. eigenvalues --    1.62500   1.63380   1.64497   1.67454   1.71248
 Alpha virt. eigenvalues --    1.72226   1.74081   1.75677   1.80773   1.84204
 Alpha virt. eigenvalues --    1.85954   1.88254   1.90993   1.97520   2.02904
 Alpha virt. eigenvalues --    2.04217   2.08101   2.09837   2.15902   2.19500
 Alpha virt. eigenvalues --    2.25051   2.31777   2.43252   2.48818   2.50249
 Alpha virt. eigenvalues --    2.53620   2.56492   2.57172   2.58868   2.61577
 Alpha virt. eigenvalues --    2.64763   2.71209   2.75526   2.79127   2.84007
 Alpha virt. eigenvalues --    2.86074   2.89081   2.90248   2.92997   2.94145
 Alpha virt. eigenvalues --    3.00488   3.03672   3.05308   3.07494   3.11940
 Alpha virt. eigenvalues --    3.15380   3.17832   3.21012   3.26720   3.27536
 Alpha virt. eigenvalues --    3.34857   3.54188   3.59354   3.61491   3.77903
 Alpha virt. eigenvalues --    3.80448   3.86449   3.97257   3.98722   4.05373
 Alpha virt. eigenvalues --    4.13354   4.25182   4.75173   4.84198   4.97476
 Alpha virt. eigenvalues --    5.02382   5.08494   5.17113   5.32060   5.34952
 Alpha virt. eigenvalues --    5.55452   5.62057   5.82207  23.73117  23.79786
 Alpha virt. eigenvalues --   23.83171  35.59567  49.84740  49.90015  49.98251
          Condensed to atoms (all electrons):
               1          2          3          4          5          6
     1  N    6.714796   0.391619  -0.174839  -0.062754   0.177694  -0.121679
     2  H    0.391619   0.445035  -0.075265   0.007530   0.019734   0.000650
     3  C   -0.174839  -0.075265   8.213268   0.500527  -1.214903  -0.349242
     4  H   -0.062754   0.007530   0.500527   0.550338  -0.151328  -0.094882
     5  C    0.177694   0.019734  -1.214903  -0.151328   6.339445   0.158763
     6  C   -0.121679   0.000650  -0.349242  -0.094882   0.158763   5.650367
     7  H    0.030397   0.004790  -0.274045  -0.038949   0.577780   0.036176
     8  H   -0.029553  -0.001482   0.181442   0.029234   0.207441  -0.063766
     9  O    0.010071   0.001720  -0.070819  -0.006412   0.187879  -0.008872
    10  O   -0.025384   0.007028  -0.028496   0.004988  -0.036704   0.458122
    11  H    0.001057   0.000398  -0.042351   0.003742   0.045131   0.006204
    12  H    0.366112  -0.039529   0.013187  -0.011167  -0.012758  -0.009750
    13  O   -0.002963  -0.001921  -0.148826  -0.002116  -0.017834   0.217145
    14  H   -0.003420  -0.000149  -0.001747   0.003718  -0.003729   0.004907
               7          8          9         10         11         12
     1  N    0.030397  -0.029553   0.010071  -0.025384   0.001057   0.366112
     2  H    0.004790  -0.001482   0.001720   0.007028   0.000398  -0.039529
     3  C   -0.274045   0.181442  -0.070819  -0.028496  -0.042351   0.013187
     4  H   -0.038949   0.029234  -0.006412   0.004988   0.003742  -0.011167
     5  C    0.577780   0.207441   0.187879  -0.036704   0.045131  -0.012758
     6  C    0.036176  -0.063766  -0.008872   0.458122   0.006204  -0.009750
     7  H    0.635342  -0.091770  -0.065049   0.002182   0.005217  -0.002204
     8  H   -0.091770   0.642287  -0.044173  -0.003027  -0.016585   0.000927
     9  O   -0.065049  -0.044173   8.075877  -0.005697   0.202299  -0.000687
    10  O    0.002182  -0.003027  -0.005697   8.038206   0.000425  -0.001205
    11  H    0.005217  -0.016585   0.202299   0.000425   0.532826  -0.000399
    12  H   -0.002204   0.000927  -0.000687  -0.001205  -0.000399   0.439962
    13  O   -0.001201   0.001266   0.000229  -0.134494   0.001107   0.002050
    14  H    0.000238  -0.000564   0.000346   0.001221  -0.000246  -0.000052
              13         14
     1  N   -0.002963  -0.003420
     2  H   -0.001921  -0.000149
     3  C   -0.148826  -0.001747
     4  H   -0.002116   0.003718
     5  C   -0.017834  -0.003729
     6  C    0.217145   0.004907
     7  H   -0.001201   0.000238
     8  H    0.001266  -0.000564
     9  O    0.000229   0.000346
    10  O   -0.134494   0.001221
    11  H    0.001107  -0.000246
    12  H    0.002050  -0.000052
    13  O    7.986886   0.262927
    14  H    0.262927   0.454102
 Mulliken charges:
               1
     1  N   -0.271156
     2  H    0.239843
     3  C   -0.527889
     4  H    0.267531
     5  C   -0.276611
     6  C    0.115857
     7  H    0.181097
     8  H    0.188325
     9  O   -0.276712
    10  O   -0.277165
    11  H    0.261174
    12  H    0.255514
    13  O   -0.162256
    14  H    0.282449
 Sum of Mulliken charges =   0.00000
 Mulliken charges with hydrogens summed into heavy atoms:
               1
     1  N    0.224201
     3  C   -0.260358
     5  C    0.092811
     6  C    0.115857
     9  O   -0.015538
    10  O   -0.277165
    13  O    0.120192
 Electronic spatial extent (au):  <R**2>=            771.1419
 Charge=              0.0000 electrons
 Dipole moment (field-independent basis, Debye):
    X=              0.3571    Y=              0.7032    Z=             -0.3348  Tot=              0.8568
 Quadrupole moment (field-independent basis, Debye-Ang):
   XX=            -35.1329   YY=            -39.8176   ZZ=            -45.8376
   XY=             -2.0448   XZ=              5.2109   YZ=             -1.3042
 Traceless Quadrupole moment (field-independent basis, Debye-Ang):
   XX=              5.1298   YY=              0.4451   ZZ=             -5.5749
   XY=             -2.0448   XZ=              5.2109   YZ=             -1.3042
 Octapole moment (field-independent basis, Debye-Ang**2):
  XXX=             -3.7054  YYY=             -8.4222  ZZZ=             -4.0064  XYY=            -11.3262
  XXY=            -19.8255  XXZ=              2.4768  XZZ=              6.6086  YZZ=              5.6192
  YYZ=              3.7260  XYZ=             -4.9239
 Hexadecapole moment (field-independent basis, Debye-Ang**3):
 XXXX=           -371.0897 YYYY=           -315.2237 ZZZZ=           -165.5940 XXXY=              0.7243
 XXXZ=             22.4193 YYYX=            -33.7273 YYYZ=             -3.3232 ZZZX=              6.8576
 ZZZY=              0.7728 XXYY=           -103.5316 XXZZ=           -113.5658 YYZZ=            -75.9530
 XXYZ=             -6.0663 YYXZ=             14.5176 ZZXY=             -5.6831
 N-N= 3.215054516866D+02 E-N=-1.579910214527D+03  KE= 3.973867330553D+02
 Calling FoFJK, ICntrl=      2127 FMM=F ISym2X=0 I1Cent= 0 IOpClX= 0 NMat=1 NMatS=1 NMatT=0.
 ***** Axes restored to original set *****
 -------------------------------------------------------------------
 Center     Atomic                   Forces (Hartrees/Bohr)
 Number     Number              X              Y              Z
 -------------------------------------------------------------------
      1        7          -0.009368301   -0.000252334    0.002560777
      2        1           0.003630185   -0.001706730    0.003451120
      3        6           0.002256823    0.004219959   -0.002412955
      4        1          -0.000056399    0.000903708   -0.000349985
      5        6          -0.001089838   -0.012842472    0.001095689
      6        6           0.026399639   -0.013870669   -0.031711473
      7        1           0.000700905   -0.001881866    0.000126284
      8        1          -0.000275943   -0.001672709    0.002026629
      9        8          -0.008158846    0.006324455   -0.008719457
     10        8          -0.010182386    0.004439956    0.043524041
     11        1           0.009486390    0.009904900    0.006015342
     12        1           0.002245839   -0.003478268   -0.003436480
     13        8          -0.003477799    0.001310212   -0.012136465
     14        1          -0.012110269    0.008601857   -0.000033067
 -------------------------------------------------------------------
 Cartesian Forces:  Max     0.043524041 RMS     0.010976899

 GradGradGradGradGradGradGradGradGradGradGradGradGradGradGradGradGradGrad
 Berny optimization.
 FormGI is forming the generalized inverse of G from B-inverse, IUseBI=4.
 GSVD:  received Info=                   1 from GESDD.
 Internal  Forces:  Max     0.044911730 RMS     0.007641337
 Search for a local minimum.
 Step number   1 out of a maximum of   69
 All quantities printed in internal units (Hartrees-Bohrs-Radians)
 Mixed Optimization -- RFO/linear search
 Second derivative matrix not updated -- first step.
 ITU=  0
     Eigenvalues ---    0.00390   0.00431   0.00830   0.00868   0.00980
     Eigenvalues ---    0.02025   0.02684   0.04761   0.05302   0.05508
     Eigenvalues ---    0.06090   0.06210   0.10634   0.13421   0.16000
     Eigenvalues ---    0.16000   0.16000   0.16000   0.16926   0.18395
     Eigenvalues ---    0.22008   0.24967   0.25000   0.29572   0.29858
     Eigenvalues ---    0.33823   0.34148   0.34683   0.36677   0.37749
     Eigenvalues ---    0.45320   0.45739   0.50066   0.50758   0.52160
     Eigenvalues ---    0.88618
 RFO step:  Lambda=-7.27329840D-03 EMin= 3.90255046D-03
 Linear search not attempted -- first point.
 Iteration  1 RMS(Cart)=  0.03637936 RMS(Int)=  0.00152550
 Iteration  2 RMS(Cart)=  0.00118946 RMS(Int)=  0.00103234
 Iteration  3 RMS(Cart)=  0.00000378 RMS(Int)=  0.00103234
 Iteration  4 RMS(Cart)=  0.00000002 RMS(Int)=  0.00103234
 Variable       Old X    -DE/DX   Delta X   Delta X   Delta X     New X
                                 (Linear)    (Quad)   (Total)
    R1        1.91606  -0.00295   0.00000  -0.00640  -0.00640   1.90966
    R2        2.76336  -0.00622   0.00000  -0.01662  -0.01662   2.74674
    R3        1.91127  -0.00267   0.00000  -0.00575  -0.00575   1.90552
    R4        2.06193  -0.00044   0.00000  -0.00126  -0.00126   2.06068
    R5        2.88826  -0.00073   0.00000  -0.00239  -0.00239   2.88587
    R6        2.88248   0.00035   0.00000   0.00114   0.00114   2.88362
    R7        2.07080  -0.00150   0.00000  -0.00429  -0.00429   2.06652
    R8        2.07630  -0.00221   0.00000  -0.00641  -0.00641   2.06989
    R9        2.74732  -0.01644   0.00000  -0.04272  -0.04272   2.70461
   R10        2.33576  -0.04491   0.00000  -0.05027  -0.05027   2.28550
   R11        2.59798  -0.02158   0.00000  -0.04249  -0.04249   2.55549
   R12        1.84446  -0.01450   0.00000  -0.02742  -0.02742   1.81705
   R13        1.85808  -0.01360   0.00000  -0.02642  -0.02642   1.83167
    A1        1.99801  -0.00176   0.00000  -0.03718  -0.04050   1.95751
    A2        1.97479  -0.00010   0.00000  -0.03809  -0.04358   1.93121
    A3        2.01766  -0.00266   0.00000  -0.04230  -0.04558   1.97207
    A4        1.90530  -0.00055   0.00000  -0.00925  -0.00925   1.89605
    A5        1.90878   0.00031   0.00000   0.00205   0.00205   1.91083
    A6        1.94340  -0.00025   0.00000  -0.00048  -0.00049   1.94291
    A7        1.90177  -0.00007   0.00000   0.00010   0.00008   1.90186
    A8        1.89455   0.00028   0.00000   0.00339   0.00338   1.89793
    A9        1.90957   0.00027   0.00000   0.00416   0.00415   1.91372
   A10        1.89556  -0.00006   0.00000   0.00197   0.00199   1.89755
   A11        1.90444   0.00035   0.00000   0.00720   0.00720   1.91164
   A12        1.85895   0.00226   0.00000   0.00909   0.00910   1.86805
   A13        1.90551   0.00049   0.00000   0.00501   0.00493   1.91043
   A14        1.95363  -0.00163   0.00000  -0.01415  -0.01417   1.93947
   A15        1.94421  -0.00132   0.00000  -0.00834  -0.00840   1.93581
   A16        2.17414  -0.00013   0.00000   0.00005  -0.00009   2.17405
   A17        1.96971  -0.00066   0.00000  -0.00200  -0.00214   1.96757
   A18        2.13732   0.00081   0.00000   0.00377   0.00363   2.14095
   A19        1.93709  -0.00691   0.00000  -0.04129  -0.04129   1.89580
   A20        1.92723  -0.01108   0.00000  -0.06624  -0.06624   1.86099
    D1        2.96781  -0.00246   0.00000  -0.07099  -0.06964   2.89817
    D2       -1.23613  -0.00269   0.00000  -0.07517  -0.07382  -1.30995
    D3        0.87635  -0.00230   0.00000  -0.06889  -0.06755   0.80880
    D4        0.62568   0.00257   0.00000   0.07641   0.07506   0.70074
    D5        2.70492   0.00234   0.00000   0.07223   0.07088   2.77580
    D6       -1.46578   0.00273   0.00000   0.07850   0.07715  -1.38863
    D7       -1.02339  -0.00012   0.00000   0.01107   0.01106  -1.01233
    D8        1.05210   0.00063   0.00000   0.02240   0.02240   1.07450
    D9       -3.13042   0.00055   0.00000   0.02163   0.02165  -3.10877
   D10        1.05804  -0.00065   0.00000   0.00112   0.00111   1.05914
   D11        3.13352   0.00010   0.00000   0.01245   0.01244  -3.13722
   D12       -1.04899   0.00003   0.00000   0.01168   0.01169  -1.03730
   D13        3.12690  -0.00019   0.00000   0.00770   0.00769   3.13459
   D14       -1.08080   0.00057   0.00000   0.01903   0.01903  -1.06178
   D15        1.01987   0.00049   0.00000   0.01826   0.01827   1.03814
   D16       -1.10815  -0.00056   0.00000  -0.01733  -0.01732  -1.12548
   D17        1.96642  -0.00009   0.00000   0.01278   0.01277   1.97919
   D18        3.07722   0.00009   0.00000  -0.00778  -0.00777   3.06945
   D19       -0.13139   0.00057   0.00000   0.02232   0.02232  -0.10907
   D20        1.00387  -0.00015   0.00000  -0.01229  -0.01228   0.99159
   D21       -2.20474   0.00033   0.00000   0.01782   0.01781  -2.18693
   D22       -2.87866  -0.00014   0.00000   0.00120   0.00120  -2.87746
   D23        1.33519  -0.00057   0.00000   0.00104   0.00111   1.33631
   D24       -0.80381   0.00093   0.00000   0.01083   0.01076  -0.79305
   D25       -3.12406   0.00003   0.00000  -0.00595  -0.00598  -3.13004
   D26       -0.04787   0.00045   0.00000   0.02327   0.02330  -0.02457
         Item               Value     Threshold  Converged?
 Maximum Force            0.044912     0.000450     NO 
 RMS     Force            0.007641     0.000300     NO 
 Maximum Displacement     0.100744     0.001800     NO 
 RMS     Displacement     0.036806     0.001200     NO 
 Predicted change in Energy=-3.761664D-03
 GradGradGradGradGradGradGradGradGradGradGradGradGradGradGradGradGradGrad

                          Input orientation:                          
 ---------------------------------------------------------------------
 Center     Atomic      Atomic             Coordinates (Angstroms)
 Number     Number       Type             X           Y           Z
 ---------------------------------------------------------------------
      1          7           0       -0.116281    2.002879    0.109524
      2          1           0        0.143411    2.153204   -0.855449
      3          6           0       -0.256691    0.591183    0.425900
      4          1           0       -0.288474    0.478536    1.510063
      5          6           0       -1.561756    0.063830   -0.166423
      6          6           0        0.917282   -0.218496   -0.116987
      7          1           0       -2.392395    0.649177    0.237638
      8          1           0       -1.537794    0.168570   -1.256480
      9          8           0       -1.668166   -1.312238    0.212387
     10          8           0        1.173631   -0.352548   -1.291314
     11          1           0       -2.341608   -1.729503   -0.332519
     12          1           0        0.518780    2.483791    0.727754
     13          8           0        1.685740   -0.746090    0.862733
     14          1           0        2.402972   -1.227920    0.423511
 ---------------------------------------------------------------------
                    Distance matrix (angstroms):
                    1          2          3          4          5
     1  N    0.000000
     2  H    1.010550   0.000000
     3  C    1.453512   2.059575   0.000000
     4  H    2.077206   2.930305   1.090463   0.000000
     5  C    2.434226   2.783493   1.527135   2.145655   0.000000
     6  C    2.460501   2.601761   1.525948   2.141727   2.495551
     7  H    2.651343   3.144400   2.144770   2.464684   1.093553
     8  H    2.692834   2.631738   2.156439   3.051335   1.095340
     9  O    3.661821   4.053563   2.379256   2.606605   1.431218
    10  O    3.028904   2.744107   2.425958   3.267440   2.986819
    11  H    4.367856   4.639417   3.210555   3.533541   1.962601
    12  H    1.008359   1.660338   2.067471   2.298850   3.314271
    13  O    3.372156   3.706323   2.398367   2.411694   3.501623
    14  H    4.108927   4.263021   3.222258   3.366967   4.211378
                    6          7          8          9         10
     6  C    0.000000
     7  H    3.439851   0.000000
     8  H    2.734165   1.787097   0.000000
     9  O    2.826535   2.091003   2.089823   0.000000
    10  O    1.209433   4.007204   2.761268   3.355284   0.000000
    11  H    3.598605   2.446585   2.258872   0.961539   3.895150
    12  H    2.859151   3.475768   3.677897   4.411142   3.542638
    13  O    1.352308   4.355308   3.964699   3.462970   2.248789
    14  H    1.875727   5.153017   4.505795   4.077481   2.284334
                   11         12         13         14
    11  H    0.000000
    12  H    5.201716   0.000000
    13  O    4.314541   3.436880   0.000000
    14  H    4.830549   4.173672   0.969276   0.000000
 Stoichiometry    C3H7NO3
 Framework group  C1[X(C3H7NO3)]
 Deg. of freedom    36
 Full point group                 C1      NOp   1
 Largest Abelian subgroup         C1      NOp   1
 Largest concise Abelian subgroup C1      NOp   1
                         Standard orientation:                         
 ---------------------------------------------------------------------
 Center     Atomic      Atomic             Coordinates (Angstroms)
 Number     Number       Type             X           Y           Z
 ---------------------------------------------------------------------
      1          7           0        0.077115    1.998956   -0.098768
      2          1           0       -0.187634    2.142453    0.865870
      3          6           0        0.243784    0.590721   -0.417818
      4          1           0        0.280275    0.481041   -1.502137
      5          6           0        1.556694    0.085726    0.176646
      6          6           0       -0.916709   -0.241212    0.120384
      7          1           0        2.377620    0.686861   -0.224073
      8          1           0        1.528151    0.187630    1.266862
      9          8           0        1.688880   -1.287363   -0.204846
     10          8           0       -1.173495   -0.382443    1.293773
     11          1           0        2.368401   -1.693591    0.340853
     12          1           0       -0.565001    2.469673   -0.717558
     13          8           0       -1.673090   -0.780451   -0.862391
     14          1           0       -2.382583   -1.276115   -0.426005
 ---------------------------------------------------------------------
 Rotational constants (GHZ):      3.0997244      2.2995712      1.7566353
 Standard basis: 6-311++G(d,p) (5D, 7F)
 There are   210 symmetry adapted cartesian basis functions of A   symmetry.
 There are   203 symmetry adapted basis functions of A   symmetry.
   203 basis functions,   315 primitive gaussians,   210 cartesian basis functions
    28 alpha electrons       28 beta electrons
       nuclear repulsion energy       324.2780243183 Hartrees.
 NAtoms=   14 NActive=   14 NUniq=   14 SFac= 1.00D+00 NAtFMM=   60 NAOKFM=F Big=F
 Integral buffers will be    131072 words long.
 Raffenetti 2 integral format.
 Two-electron integral symmetry is turned on.
 One-electron integrals computed using PRISM.
 NBasis=   203 RedAO= T EigKep=  1.89D-05  NBF=   203
 NBsUse=   203 1.00D-06 EigRej= -1.00D+00 NBFU=   203
 Initial guess from the checkpoint file:  "Ser-S-opt-6-311gdp.chk"
 B after Tr=     0.000000    0.000000    0.000000
         Rot=    0.999970   -0.001814    0.002382   -0.007079 Ang=  -0.88 deg.
 ExpMin= 3.60D-02 ExpMax= 8.59D+03 ExpMxC= 1.30D+03 IAcc=3 IRadAn=         5 AccDes= 0.00D+00
 Harris functional with IExCor=  402 and IRadAn=       5 diagonalized for initial guess.
 HarFok:  IExCor=  402 AccDes= 0.00D+00 IRadAn=         5 IDoV= 1 UseB2=F ITyADJ=14
 ICtDFT=  3500011 ScaDFX=  1.000000  1.000000  1.000000  1.000000
 FoFCou: FMM=F IPFlag=           0 FMFlag=      100000 FMFlg1=           0
         NFxFlg=           0 DoJE=T BraDBF=F KetDBF=T FulRan=T
         wScrn=  0.000000 ICntrl=     500 IOpCl=  0 I1Cent=   200000004 NGrid=           0
         NMat0=    1 NMatS0=      1 NMatT0=    0 NMatD0=    1 NMtDS0=    0 NMtDT0=    0
 Petite list used in FoFCou.
 Requested convergence on RMS density matrix=1.00D-08 within 128 cycles.
 Requested convergence on MAX density matrix=1.00D-06.
 Requested convergence on             energy=1.00D-06.
 No special actions if energy rises.
 SCF Done:  E(RB3LYP) =  -399.091383055     A.U. after   11 cycles
            NFock= 11  Conv=0.55D-08     -V/T= 2.0035
 Calling FoFJK, ICntrl=      2127 FMM=F ISym2X=0 I1Cent= 0 IOpClX= 0 NMat=1 NMatS=1 NMatT=0.
 ***** Axes restored to original set *****
 -------------------------------------------------------------------
 Center     Atomic                   Forces (Hartrees/Bohr)
 Number     Number              X              Y              Z
 -------------------------------------------------------------------
      1        7          -0.006927422    0.003473579    0.001039009
      2        1           0.002515052    0.000860044   -0.001826214
      3        6          -0.000121572   -0.000142204   -0.000251340
      4        1          -0.000527105   -0.000620296    0.000258480
      5        6           0.000873879   -0.004451596    0.002454110
      6        6           0.001254103   -0.004389428   -0.002258511
      7        1           0.000139353    0.001400491   -0.000134151
      8        1           0.000269584    0.000737318   -0.000381024
      9        8          -0.001430469    0.001198040   -0.001812473
     10        8          -0.000694154    0.001668026    0.003392652
     11        1           0.000438079   -0.000674281    0.000670542
     12        1           0.003518714    0.000755235   -0.000163766
     13        8          -0.000556929    0.000942697   -0.001567977
     14        1           0.001248886   -0.000757626    0.000580664
 -------------------------------------------------------------------
 Cartesian Forces:  Max     0.006927422 RMS     0.002008376

 GradGradGradGradGradGradGradGradGradGradGradGradGradGradGradGradGradGrad
 Berny optimization.
 Using GEDIIS/GDIIS optimizer.
 FormGI is forming the generalized inverse of G from B-inverse, IUseBI=4.
 Internal  Forces:  Max     0.005064444 RMS     0.001235138
 Search for a local minimum.
 Step number   2 out of a maximum of   69
 All quantities printed in internal units (Hartrees-Bohrs-Radians)
 Mixed Optimization -- RFO/linear search
 Update second derivatives using D2CorX and points    1    2
 DE= -3.92D-03 DEPred=-3.76D-03 R= 1.04D+00
 TightC=F SS=  1.41D+00  RLast= 2.37D-01 DXNew= 5.0454D-01 7.1059D-01
 Trust test= 1.04D+00 RLast= 2.37D-01 DXMaxT set to 5.05D-01
 ITU=  1  0
 Use linear search instead of GDIIS.
     Eigenvalues ---    0.00391   0.00430   0.00834   0.00867   0.00980
     Eigenvalues ---    0.02025   0.03071   0.04714   0.05300   0.05454
     Eigenvalues ---    0.06071   0.06257   0.10805   0.13466   0.15972
     Eigenvalues ---    0.16000   0.16000   0.16912   0.17261   0.18418
     Eigenvalues ---    0.21862   0.24970   0.25025   0.29571   0.29808
     Eigenvalues ---    0.33843   0.34166   0.34684   0.36353   0.38710
     Eigenvalues ---    0.45393   0.45793   0.50208   0.51593   0.52833
     Eigenvalues ---    0.85386
 RFO step:  Lambda=-7.51145084D-04 EMin= 3.90769358D-03
 Quartic linear search produced a step of  0.04210.
 Iteration  1 RMS(Cart)=  0.02647346 RMS(Int)=  0.00088728
 Iteration  2 RMS(Cart)=  0.00082985 RMS(Int)=  0.00042017
 Iteration  3 RMS(Cart)=  0.00000048 RMS(Int)=  0.00042017
 Variable       Old X    -DE/DX   Delta X   Delta X   Delta X     New X
                                 (Linear)    (Quad)   (Total)
    R1        1.90966   0.00252  -0.00027   0.00533   0.00506   1.91472
    R2        2.74674   0.00506  -0.00070   0.01319   0.01249   2.75923
    R3        1.90552   0.00247  -0.00024   0.00522   0.00498   1.91050
    R4        2.06068   0.00034  -0.00005   0.00092   0.00087   2.06154
    R5        2.88587   0.00006  -0.00010   0.00005  -0.00005   2.88582
    R6        2.88362   0.00226   0.00005   0.00788   0.00793   2.89156
    R7        2.06652   0.00059  -0.00018   0.00152   0.00134   2.06785
    R8        2.06989   0.00045  -0.00027   0.00097   0.00070   2.07060
    R9        2.70461  -0.00073  -0.00180  -0.00479  -0.00659   2.69802
   R10        2.28550  -0.00363  -0.00212  -0.00760  -0.00971   2.27578
   R11        2.55549  -0.00039  -0.00179  -0.00362  -0.00541   2.55008
   R12        1.81705  -0.00040  -0.00115  -0.00260  -0.00375   1.81329
   R13        1.83167   0.00104  -0.00111   0.00037  -0.00074   1.83092
    A1        1.95751   0.00027  -0.00170  -0.01210  -0.01452   1.94299
    A2        1.93121  -0.00134  -0.00183  -0.02988  -0.03300   1.89821
    A3        1.97207  -0.00050  -0.00192  -0.01731  -0.01994   1.95213
    A4        1.89605   0.00011  -0.00039   0.00304   0.00265   1.89870
    A5        1.91083  -0.00002   0.00009   0.00134   0.00142   1.91225
    A6        1.94291   0.00066  -0.00002   0.00680   0.00678   1.94969
    A7        1.90186  -0.00027   0.00000  -0.00730  -0.00731   1.89455
    A8        1.89793  -0.00008   0.00014  -0.00203  -0.00192   1.89600
    A9        1.91372  -0.00041   0.00017  -0.00213  -0.00197   1.91175
   A10        1.89755  -0.00130   0.00008  -0.00936  -0.00934   1.88821
   A11        1.91164  -0.00100   0.00030  -0.00763  -0.00738   1.90425
   A12        1.86805   0.00210   0.00038   0.01237   0.01276   1.88081
   A13        1.91043   0.00018   0.00021  -0.00514  -0.00503   1.90540
   A14        1.93947   0.00020  -0.00060   0.00686   0.00629   1.94575
   A15        1.93581  -0.00020  -0.00035   0.00275   0.00242   1.93823
   A16        2.17405  -0.00120   0.00000  -0.00602  -0.00753   2.16652
   A17        1.96757   0.00081  -0.00009   0.00209   0.00048   1.96805
   A18        2.14095   0.00036   0.00015   0.00056  -0.00083   2.14012
   A19        1.89580   0.00177  -0.00174   0.00882   0.00708   1.90289
   A20        1.86099   0.00216  -0.00279   0.00979   0.00700   1.86799
    D1        2.89817  -0.00060  -0.00293  -0.00760  -0.01019   2.88798
    D2       -1.30995  -0.00087  -0.00311  -0.01386  -0.01664  -1.32659
    D3        0.80880  -0.00096  -0.00284  -0.01119  -0.01370   0.79510
    D4        0.70074   0.00141   0.00316   0.05680   0.05964   0.76037
    D5        2.77580   0.00114   0.00298   0.05054   0.05319   2.82899
    D6       -1.38863   0.00104   0.00325   0.05321   0.05612  -1.33251
    D7       -1.01233   0.00087   0.00047   0.02304   0.02346  -0.98886
    D8        1.07450  -0.00027   0.00094   0.00667   0.00765   1.08215
    D9       -3.10877   0.00016   0.00091   0.01298   0.01389  -3.09488
   D10        1.05914   0.00083   0.00005   0.02319   0.02319   1.08233
   D11       -3.13722  -0.00031   0.00052   0.00682   0.00738  -3.12984
   D12       -1.03730   0.00012   0.00049   0.01313   0.01362  -1.02368
   D13        3.13459   0.00033   0.00032   0.01510   0.01539  -3.13321
   D14       -1.06178  -0.00081   0.00080  -0.00127  -0.00042  -1.06220
   D15        1.03814  -0.00038   0.00077   0.00504   0.00582   1.04396
   D16       -1.12548   0.00067  -0.00073   0.07685   0.07602  -1.04946
   D17        1.97919  -0.00019   0.00054  -0.02455  -0.02391   1.95528
   D18        3.06945   0.00019  -0.00033   0.07024   0.06981   3.13926
   D19       -0.10907  -0.00067   0.00094  -0.03117  -0.03012  -0.13919
   D20        0.99159   0.00080  -0.00052   0.08156   0.08093   1.07252
   D21       -2.18693  -0.00006   0.00075  -0.01985  -0.01900  -2.20593
   D22       -2.87746  -0.00004   0.00005   0.00074   0.00081  -2.87666
   D23        1.33631   0.00015   0.00005   0.00071   0.00073   1.33703
   D24       -0.79305  -0.00008   0.00045   0.00062   0.00109  -0.79196
   D25       -3.13004   0.00051  -0.00025   0.05331   0.05318  -3.07686
   D26       -0.02457  -0.00037   0.00098  -0.04604  -0.04518  -0.06975
         Item               Value     Threshold  Converged?
 Maximum Force            0.005064     0.000450     NO 
 RMS     Force            0.001235     0.000300     NO 
 Maximum Displacement     0.090297     0.001800     NO 
 RMS     Displacement     0.026498     0.001200     NO 
 Predicted change in Energy=-3.937993D-04
 GradGradGradGradGradGradGradGradGradGradGradGradGradGradGradGradGradGrad

                          Input orientation:                          
 ---------------------------------------------------------------------
 Center     Atomic      Atomic             Coordinates (Angstroms)
 Number     Number       Type             X           Y           Z
 ---------------------------------------------------------------------
      1          7           0       -0.123343    2.001824    0.111999
      2          1           0        0.149358    2.140695   -0.853909
      3          6           0       -0.263833    0.582647    0.425301
      4          1           0       -0.299371    0.463960    1.509165
      5          6           0       -1.570310    0.055718   -0.164213
      6          6           0        0.909417   -0.235733   -0.117916
      7          1           0       -2.391941    0.660644    0.231252
      8          1           0       -1.539414    0.159579   -1.254554
      9          8           0       -1.698972   -1.314135    0.217051
     10          8           0        1.202698   -0.304765   -1.283911
     11          1           0       -2.373008   -1.728066   -0.326160
     12          1           0        0.555434    2.453680    0.709655
     13          8           0        1.689811   -0.741997    0.859673
     14          1           0        2.432124   -1.189677    0.426904
 ---------------------------------------------------------------------
                    Distance matrix (angstroms):
                    1          2          3          4          5
     1  N    0.000000
     2  H    1.013227   0.000000
     3  C    1.460123   2.057819   0.000000
     4  H    2.085207   2.932050   1.090922   0.000000
     5  C    2.440766   2.789277   1.527110   2.140594   0.000000
     6  C    2.475099   2.601305   1.530146   2.144326   2.497225
     7  H    2.638091   3.134697   2.138360   2.459796   1.094261
     8  H    2.695662   2.633873   2.151280   3.044421   1.095712
     9  O    3.672769   4.061912   2.387630   2.605775   1.427730
    10  O    3.004547   2.697165   2.420665   3.263192   3.012182
    11  H    4.377792   4.648458   3.217563   3.531766   1.962763
    12  H    1.010992   1.645476   2.062236   2.308440   3.321544
    13  O    3.372699   3.690430   2.400018   2.415164   3.509000
    14  H    4.100641   4.235904   3.226347   3.371479   4.233191
                    6          7          8          9         10
     6  C    0.000000
     7  H    3.438659   0.000000
     8  H    2.728551   1.784793   0.000000
     9  O    2.842332   2.092883   2.088759   0.000000
    10  O    1.204293   4.018602   2.781304   3.419269   0.000000
    11  H    3.611751   2.452958   2.262741   0.959554   3.965948
    12  H    2.836040   3.482939   3.675514   4.418307   3.464430
    13  O    1.349444   4.361539   3.963671   3.496306   2.241295
    14  H    1.877625   5.170452   4.518950   4.138294   2.285048
                   11         12         13         14
    11  H    0.000000
    12  H    5.209193   0.000000
    13  O    4.345692   3.394358   0.000000
    14  H    4.893492   4.108037   0.968883   0.000000
 Stoichiometry    C3H7NO3
 Framework group  C1[X(C3H7NO3)]
 Deg. of freedom    36
 Full point group                 C1      NOp   1
 Largest Abelian subgroup         C1      NOp   1
 Largest concise Abelian subgroup C1      NOp   1
                         Standard orientation:                         
 ---------------------------------------------------------------------
 Center     Atomic      Atomic             Coordinates (Angstroms)
 Number     Number       Type             X           Y           Z
 ---------------------------------------------------------------------
      1          7           0        0.035167    1.994689   -0.127050
      2          1           0       -0.250618    2.133164    0.835125
      3          6           0        0.237077    0.579099   -0.422513
      4          1           0        0.285994    0.449533   -1.504609
      5          6           0        1.559718    0.113968    0.182746
      6          6           0       -0.905284   -0.281224    0.121732
      7          1           0        2.358510    0.748065   -0.213813
      8          1           0        1.516006    0.228990    1.271527
      9          8           0        1.748288   -1.253618   -0.181342
     10          8           0       -1.204536   -0.349012    1.286281
     11          1           0        2.434712   -1.632782    0.371649
     12          1           0       -0.657148    2.410917   -0.734964
     13          8           0       -1.656257   -0.830830   -0.855494
     14          1           0       -2.382641   -1.304088   -0.422913
 ---------------------------------------------------------------------
 Rotational constants (GHZ):      3.1267118      2.2667313      1.7401575
 Standard basis: 6-311++G(d,p) (5D, 7F)
 There are   210 symmetry adapted cartesian basis functions of A   symmetry.
 There are   203 symmetry adapted basis functions of A   symmetry.
   203 basis functions,   315 primitive gaussians,   210 cartesian basis functions
    28 alpha electrons       28 beta electrons
       nuclear repulsion energy       323.9386815611 Hartrees.
 NAtoms=   14 NActive=   14 NUniq=   14 SFac= 1.00D+00 NAtFMM=   60 NAOKFM=F Big=F
 Integral buffers will be    131072 words long.
 Raffenetti 2 integral format.
 Two-electron integral symmetry is turned on.
 One-electron integrals computed using PRISM.
 NBasis=   203 RedAO= T EigKep=  1.94D-05  NBF=   203
 NBsUse=   203 1.00D-06 EigRej= -1.00D+00 NBFU=   203
 Initial guess from the checkpoint file:  "Ser-S-opt-6-311gdp.chk"
 B after Tr=     0.000000    0.000000    0.000000
         Rot=    0.999896    0.009022    0.003640   -0.010669 Ang=   1.65 deg.
 ExpMin= 3.60D-02 ExpMax= 8.59D+03 ExpMxC= 1.30D+03 IAcc=3 IRadAn=         5 AccDes= 0.00D+00
 Harris functional with IExCor=  402 and IRadAn=       5 diagonalized for initial guess.
 HarFok:  IExCor=  402 AccDes= 0.00D+00 IRadAn=         5 IDoV= 1 UseB2=F ITyADJ=14
 ICtDFT=  3500011 ScaDFX=  1.000000  1.000000  1.000000  1.000000
 FoFCou: FMM=F IPFlag=           0 FMFlag=      100000 FMFlg1=           0
         NFxFlg=           0 DoJE=T BraDBF=F KetDBF=T FulRan=T
         wScrn=  0.000000 ICntrl=     500 IOpCl=  0 I1Cent=   200000004 NGrid=           0
         NMat0=    1 NMatS0=      1 NMatT0=    0 NMatD0=    1 NMtDS0=    0 NMtDT0=    0
 Petite list used in FoFCou.
 Requested convergence on RMS density matrix=1.00D-08 within 128 cycles.
 Requested convergence on MAX density matrix=1.00D-06.
 Requested convergence on             energy=1.00D-06.
 No special actions if energy rises.
 SCF Done:  E(RB3LYP) =  -399.091382414     A.U. after   11 cycles
            NFock= 11  Conv=0.54D-08     -V/T= 2.0035
 Calling FoFJK, ICntrl=      2127 FMM=F ISym2X=0 I1Cent= 0 IOpClX= 0 NMat=1 NMatS=1 NMatT=0.
 ***** Axes restored to original set *****
 -------------------------------------------------------------------
 Center     Atomic                   Forces (Hartrees/Bohr)
 Number     Number              X              Y              Z
 -------------------------------------------------------------------
      1        7          -0.002865354   -0.000098013    0.000555288
      2        1           0.000757991    0.000064809   -0.001368749
      3        6          -0.002230756   -0.003996216    0.000820540
      4        1          -0.000116172    0.000142686    0.000174338
      5        6          -0.000308165    0.000054066    0.000475261
      6        6           0.004969711    0.010138499    0.004041899
      7        1          -0.000321879    0.000374593   -0.000239174
      8        1          -0.000154504    0.000290758   -0.000564162
      9        8           0.001495178    0.001120817    0.000554787
     10        8          -0.001528813   -0.003754400   -0.005778156
     11        1          -0.001004368   -0.000854395   -0.000675931
     12        1           0.001780438    0.000382403    0.000420040
     13        8          -0.001680529   -0.003054075    0.001580468
     14        1           0.001207222   -0.000811532    0.000003552
 -------------------------------------------------------------------
 Cartesian Forces:  Max     0.010138499 RMS     0.002457316

 GradGradGradGradGradGradGradGradGradGradGradGradGradGradGradGradGradGrad
 Berny optimization.
 Using GEDIIS/GDIIS optimizer.
 FormGI is forming the generalized inverse of G from B-inverse, IUseBI=4.
 Internal  Forces:  Max     0.005437498 RMS     0.001217099
 Search for a local minimum.
 Step number   3 out of a maximum of   69
 All quantities printed in internal units (Hartrees-Bohrs-Radians)
 Mixed Optimization -- RFO/linear search
 Update second derivatives using D2CorX and points    1    3    2
 DE=  6.41D-07 DEPred=-3.94D-04 R=-1.63D-03
 Trust test=-1.63D-03 RLast= 1.97D-01 DXMaxT set to 2.52D-01
 ITU= -1  1  0
 Use linear search instead of GDIIS.
 Energy rises -- skip Quadratic/GDIIS search.
 Quartic linear search produced a step of -0.49765.
 Iteration  1 RMS(Cart)=  0.01319582 RMS(Int)=  0.00021921
 Iteration  2 RMS(Cart)=  0.00020615 RMS(Int)=  0.00009895
 Iteration  3 RMS(Cart)=  0.00000002 RMS(Int)=  0.00009895
 Variable       Old X    -DE/DX   Delta X   Delta X   Delta X     New X
                                 (Linear)    (Quad)   (Total)
    R1        1.91472   0.00152  -0.00252   0.00000  -0.00252   1.91220
    R2        2.75923   0.00039  -0.00622   0.00000  -0.00622   2.75301
    R3        1.91050   0.00161  -0.00248   0.00000  -0.00248   1.90802
    R4        2.06154   0.00016  -0.00043   0.00000  -0.00043   2.06111
    R5        2.88582   0.00008   0.00002   0.00000   0.00002   2.88584
    R6        2.89156   0.00098  -0.00395   0.00000  -0.00395   2.88761
    R7        2.06785   0.00036  -0.00067   0.00000  -0.00067   2.06719
    R8        2.07060   0.00058  -0.00035   0.00000  -0.00035   2.07025
    R9        2.69802  -0.00033   0.00328   0.00000   0.00328   2.70130
   R10        2.27578   0.00544   0.00483   0.00000   0.00483   2.28062
   R11        2.55008   0.00232   0.00269   0.00000   0.00269   2.55277
   R12        1.81329   0.00146   0.00187   0.00000   0.00187   1.81516
   R13        1.83092   0.00130   0.00037   0.00000   0.00037   1.83129
    A1        1.94299  -0.00033   0.00722   0.00000   0.00738   1.95037
    A2        1.89821  -0.00014   0.01642   0.00000   0.01669   1.91489
    A3        1.95213  -0.00038   0.00992   0.00000   0.01007   1.96221
    A4        1.89870   0.00026  -0.00132   0.00000  -0.00132   1.89738
    A5        1.91225  -0.00056  -0.00071   0.00000  -0.00071   1.91154
    A6        1.94969  -0.00036  -0.00337   0.00000  -0.00337   1.94631
    A7        1.89455   0.00008   0.00364   0.00000   0.00364   1.89819
    A8        1.89600  -0.00008   0.00096   0.00000   0.00097   1.89697
    A9        1.91175   0.00069   0.00098   0.00000   0.00099   1.91274
   A10        1.88821   0.00035   0.00465   0.00000   0.00466   1.89287
   A11        1.90425   0.00024   0.00368   0.00000   0.00369   1.90794
   A12        1.88081  -0.00107  -0.00635   0.00000  -0.00635   1.87446
   A13        1.90540  -0.00033   0.00250   0.00000   0.00253   1.90793
   A14        1.94575   0.00048  -0.00313   0.00000  -0.00314   1.94262
   A15        1.93823   0.00033  -0.00120   0.00000  -0.00121   1.93702
   A16        2.16652  -0.00014   0.00375   0.00000   0.00412   2.17064
   A17        1.96805  -0.00002  -0.00024   0.00000   0.00014   1.96819
   A18        2.14012   0.00068   0.00041   0.00000   0.00080   2.14091
   A19        1.90289   0.00049  -0.00353   0.00000  -0.00353   1.89936
   A20        1.86799   0.00120  -0.00348   0.00000  -0.00348   1.86451
    D1        2.88798  -0.00021   0.00507   0.00000   0.00500   2.89298
    D2       -1.32659  -0.00029   0.00828   0.00000   0.00821  -1.31837
    D3        0.79510  -0.00004   0.00682   0.00000   0.00675   0.80185
    D4        0.76037   0.00048  -0.02968   0.00000  -0.02961   0.73076
    D5        2.82899   0.00040  -0.02647   0.00000  -0.02640   2.80259
    D6       -1.33251   0.00065  -0.02793   0.00000  -0.02786  -1.36037
    D7       -0.98886  -0.00010  -0.01168   0.00000  -0.01167  -1.00053
    D8        1.08215  -0.00016  -0.00381   0.00000  -0.00382   1.07833
    D9       -3.09488  -0.00026  -0.00691   0.00000  -0.00691  -3.10179
   D10        1.08233  -0.00007  -0.01154   0.00000  -0.01153   1.07080
   D11       -3.12984  -0.00013  -0.00367   0.00000  -0.00368  -3.13352
   D12       -1.02368  -0.00023  -0.00678   0.00000  -0.00678  -1.03046
   D13       -3.13321   0.00027  -0.00766   0.00000  -0.00765  -3.14086
   D14       -1.06220   0.00021   0.00021   0.00000   0.00020  -1.06200
   D15        1.04396   0.00011  -0.00290   0.00000  -0.00290   1.04106
   D16       -1.04946  -0.00198  -0.03783   0.00000  -0.03781  -1.08727
   D17        1.95528   0.00226   0.01190   0.00000   0.01188   1.96715
   D18        3.13926  -0.00201  -0.03474   0.00000  -0.03472   3.10454
   D19       -0.13919   0.00222   0.01499   0.00000   0.01497  -0.12422
   D20        1.07252  -0.00246  -0.04028   0.00000  -0.04026   1.03227
   D21       -2.20593   0.00178   0.00945   0.00000   0.00943  -2.19650
   D22       -2.87666   0.00006  -0.00040   0.00000  -0.00040  -2.87706
   D23        1.33703   0.00001  -0.00036   0.00000  -0.00035   1.33668
   D24       -0.79196  -0.00012  -0.00054   0.00000  -0.00055  -0.79251
   D25       -3.07686  -0.00209  -0.02647   0.00000  -0.02650  -3.10336
   D26       -0.06975   0.00200   0.02248   0.00000   0.02252  -0.04723
         Item               Value     Threshold  Converged?
 Maximum Force            0.005437     0.000450     NO 
 RMS     Force            0.001217     0.000300     NO 
 Maximum Displacement     0.045138     0.001800     NO 
 RMS     Displacement     0.013201     0.001200     NO 
 Predicted change in Energy=-1.986643D-04
 GradGradGradGradGradGradGradGradGradGradGradGradGradGradGradGradGradGrad

                          Input orientation:                          
 ---------------------------------------------------------------------
 Center     Atomic      Atomic             Coordinates (Angstroms)
 Number     Number       Type             X           Y           Z
 ---------------------------------------------------------------------
      1          7           0       -0.119909    2.002366    0.110710
      2          1           0        0.146445    2.147019   -0.854724
      3          6           0       -0.260382    0.586935    0.425644
      4          1           0       -0.294143    0.471338    1.509669
      5          6           0       -1.566104    0.059747   -0.165341
      6          6           0        0.913286   -0.227151   -0.117243
      7          1           0       -2.392300    0.654987    0.234316
      8          1           0       -1.538582    0.163969   -1.255552
      9          8           0       -1.683743   -1.313211    0.214815
     10          8           0        1.188373   -0.328651   -1.287933
     11          1           0       -2.357445   -1.728843   -0.329259
     12          1           0        0.537247    2.468927    0.718923
     13          8           0        1.687978   -0.744128    0.861242
     14          1           0        2.417930   -1.208928    0.425070
 ---------------------------------------------------------------------
                    Distance matrix (angstroms):
                    1          2          3          4          5
     1  N    0.000000
     2  H    1.011895   0.000000
     3  C    1.456833   2.058814   0.000000
     4  H    2.081224   2.931276   1.090694   0.000000
     5  C    2.437510   2.786535   1.527122   2.143118   0.000000
     6  C    2.467833   2.601655   1.528057   2.143039   2.496397
     7  H    2.644707   3.139649   2.141568   2.462218   1.093909
     8  H    2.694255   2.632958   2.153861   3.047877   1.095527
     9  O    3.667352   4.057918   2.383477   2.606195   1.429466
    10  O    3.016859   2.720703   2.423537   3.265641   2.999701
    11  H    4.372878   4.644123   3.214091   3.532657   1.962688
    12  H    1.009681   1.653093   2.064975   2.303661   3.318156
    13  O    3.372682   3.698594   2.399496   2.413839   3.505587
    14  H    4.105101   4.249694   3.224667   3.369716   4.222635
                    6          7          8          9         10
     6  C    0.000000
     7  H    3.439282   0.000000
     8  H    2.731369   1.785956   0.000000
     9  O    2.834493   2.091945   2.089285   0.000000
    10  O    1.206851   4.013228   2.771282   3.387722   0.000000
    11  H    3.605233   2.449790   2.260816   0.960542   3.930956
    12  H    2.847704   3.479579   3.677017   4.414917   3.503981
    13  O    1.350869   4.358811   3.964360   3.479976   2.245257
    14  H    1.876684   5.162255   4.512574   4.108382   2.284968
                   11         12         13         14
    11  H    0.000000
    12  H    5.205689   0.000000
    13  O    4.330405   3.415870   0.000000
    14  H    4.862461   4.141248   0.969079   0.000000
 Stoichiometry    C3H7NO3
 Framework group  C1[X(C3H7NO3)]
 Deg. of freedom    36
 Full point group                 C1      NOp   1
 Largest Abelian subgroup         C1      NOp   1
 Largest concise Abelian subgroup C1      NOp   1
                         Standard orientation:                         
 ---------------------------------------------------------------------
 Center     Atomic      Atomic             Coordinates (Angstroms)
 Number     Number       Type             X           Y           Z
 ---------------------------------------------------------------------
      1          7           0        0.055676    1.997025   -0.112948
      2          1           0       -0.219927    2.138139    0.850411
      3          6           0        0.240362    0.585001   -0.420262
      4          1           0        0.283222    0.465356   -1.503526
      5          6           0        1.558285    0.100218    0.179876
      6          6           0       -0.911053   -0.261530    0.120654
      7          1           0        2.368239    0.718204   -0.218501
      8          1           0        1.521972    0.208710    1.269412
      9          8           0        1.719207   -1.270349   -0.192981
     10          8           0       -1.189036   -0.365747    1.290420
     11          1           0        2.402288   -1.662904    0.356510
     12          1           0       -0.612068    2.440683   -0.726741
     13          8           0       -1.664724   -0.806244   -0.859199
     14          1           0       -2.382598   -1.290776   -0.424459
 ---------------------------------------------------------------------
 Rotational constants (GHZ):      3.1127977      2.2826725      1.7482563
 Standard basis: 6-311++G(d,p) (5D, 7F)
 There are   210 symmetry adapted cartesian basis functions of A   symmetry.
 There are   203 symmetry adapted basis functions of A   symmetry.
   203 basis functions,   315 primitive gaussians,   210 cartesian basis functions
    28 alpha electrons       28 beta electrons
       nuclear repulsion energy       324.0945045194 Hartrees.
 NAtoms=   14 NActive=   14 NUniq=   14 SFac= 1.00D+00 NAtFMM=   60 NAOKFM=F Big=F
 Integral buffers will be    131072 words long.
 Raffenetti 2 integral format.
 Two-electron integral symmetry is turned on.
 One-electron integrals computed using PRISM.
 NBasis=   203 RedAO= T EigKep=  1.92D-05  NBF=   203
 NBsUse=   203 1.00D-06 EigRej= -1.00D+00 NBFU=   203
 Lowest energy guess from the checkpoint file:  "Ser-S-opt-6-311gdp.chk"
 B after Tr=     0.000000    0.000000    0.000000
         Rot=    0.999973    0.004536    0.001858   -0.005461 Ang=   0.84 deg.
 B after Tr=     0.000000    0.000000    0.000000
         Rot=    0.999975   -0.004487   -0.001784    0.005207 Ang=  -0.81 deg.
 Requested convergence on RMS density matrix=1.00D-08 within 128 cycles.
 Requested convergence on MAX density matrix=1.00D-06.
 Requested convergence on             energy=1.00D-06.
 No special actions if energy rises.
 SCF Done:  E(RB3LYP) =  -399.091577634     A.U. after    7 cycles
            NFock=  7  Conv=0.88D-08     -V/T= 2.0035
 Calling FoFJK, ICntrl=      2127 FMM=F ISym2X=0 I1Cent= 0 IOpClX= 0 NMat=1 NMatS=1 NMatT=0.
 ***** Axes restored to original set *****
 -------------------------------------------------------------------
 Center     Atomic                   Forces (Hartrees/Bohr)
 Number     Number              X              Y              Z
 -------------------------------------------------------------------
      1        7          -0.004958967    0.001703387    0.000827806
      2        1           0.001672052    0.000433623   -0.001571632
      3        6          -0.001099743   -0.002080180    0.000285550
      4        1          -0.000326078   -0.000233011    0.000218049
      5        6           0.000269239   -0.002190459    0.001464951
      6        6           0.003223013    0.002970778    0.000754002
      7        1          -0.000081985    0.000885634   -0.000190408
      8        1           0.000056590    0.000512590   -0.000471449
      9        8           0.000052287    0.001168024   -0.000629737
     10        8          -0.001222103   -0.001138763   -0.001034289
     11        1          -0.000284662   -0.000763281   -0.000003735
     12        1           0.002663583    0.000524673    0.000087012
     13        8          -0.001187676   -0.001009581   -0.000027283
     14        1           0.001224452   -0.000783434    0.000291162
 -------------------------------------------------------------------
 Cartesian Forces:  Max     0.004958967 RMS     0.001429831

 GradGradGradGradGradGradGradGradGradGradGradGradGradGradGradGradGradGrad
 Berny optimization.
 Using GEDIIS/GDIIS optimizer.
 FormGI is forming the generalized inverse of G from B-inverse, IUseBI=4.
 Internal  Forces:  Max     0.002669228 RMS     0.000798310
 Search for a local minimum.
 Step number   4 out of a maximum of   69
 All quantities printed in internal units (Hartrees-Bohrs-Radians)
 Mixed Optimization -- En-DIIS/RFO-DIIS
 Update second derivatives using D2CorX and points    1    3    2    4
 ITU=  0 -1  1  0
 Use linear search instead of GDIIS.
     Eigenvalues ---    0.00388   0.00417   0.00791   0.00980   0.01941
     Eigenvalues ---    0.02046   0.03616   0.04813   0.05379   0.05419
     Eigenvalues ---    0.06058   0.06300   0.10756   0.13486   0.15929
     Eigenvalues ---    0.15984   0.16037   0.16215   0.17032   0.18566
     Eigenvalues ---    0.22123   0.24697   0.25066   0.29172   0.29572
     Eigenvalues ---    0.33783   0.34093   0.34649   0.35206   0.38427
     Eigenvalues ---    0.44535   0.45571   0.50297   0.51129   0.52482
     Eigenvalues ---    0.88735
 RFO step:  Lambda=-8.15126974D-04 EMin= 3.88175283D-03
 Quartic linear search produced a step of -0.00402.
 Iteration  1 RMS(Cart)=  0.02885951 RMS(Int)=  0.00114899
 Iteration  2 RMS(Cart)=  0.00116604 RMS(Int)=  0.00047187
 Iteration  3 RMS(Cart)=  0.00000104 RMS(Int)=  0.00047186
 Iteration  4 RMS(Cart)=  0.00000000 RMS(Int)=  0.00047186
 Variable       Old X    -DE/DX   Delta X   Delta X   Delta X     New X
                                 (Linear)    (Quad)   (Total)
    R1        1.91220   0.00200  -0.00001   0.01021   0.01020   1.92241
    R2        2.75301   0.00267  -0.00003   0.02170   0.02167   2.77469
    R3        1.90802   0.00203  -0.00001   0.01010   0.01009   1.91811
    R4        2.06111   0.00025   0.00000   0.00173   0.00172   2.06284
    R5        2.88584   0.00006   0.00000   0.00026   0.00026   2.88610
    R6        2.88761   0.00155  -0.00002   0.01375   0.01373   2.90134
    R7        2.06719   0.00047   0.00000   0.00304   0.00304   2.07023
    R8        2.07025   0.00052   0.00000   0.00259   0.00259   2.07283
    R9        2.70130  -0.00053   0.00001  -0.00654  -0.00653   2.69477
   R10        2.28062   0.00082   0.00002  -0.00733  -0.00731   2.27331
   R11        2.55277   0.00090   0.00001  -0.00211  -0.00210   2.55067
   R12        1.81516   0.00053   0.00001  -0.00179  -0.00178   1.81338
   R13        1.83129   0.00117   0.00000   0.00273   0.00274   1.83403
    A1        1.95037  -0.00006   0.00003  -0.02125  -0.02241   1.92796
    A2        1.91489  -0.00074   0.00007  -0.05057  -0.05285   1.86204
    A3        1.96221  -0.00048   0.00004  -0.02943  -0.03057   1.93163
    A4        1.89738   0.00018  -0.00001   0.00548   0.00547   1.90285
    A5        1.91154  -0.00028   0.00000  -0.00019  -0.00019   1.91135
    A6        1.94631   0.00014  -0.00001   0.00864   0.00862   1.95494
    A7        1.89819  -0.00009   0.00001  -0.00990  -0.00990   1.88829
    A8        1.89697  -0.00008   0.00000  -0.00236  -0.00242   1.89455
    A9        1.91274   0.00013   0.00000  -0.00210  -0.00212   1.91062
   A10        1.89287  -0.00047   0.00002  -0.01375  -0.01390   1.87898
   A11        1.90794  -0.00038   0.00001  -0.01212  -0.01223   1.89571
   A12        1.87446   0.00049  -0.00003   0.01675   0.01673   1.89119
   A13        1.90793  -0.00008   0.00001  -0.00944  -0.00967   1.89826
   A14        1.94262   0.00035  -0.00001   0.01308   0.01312   1.95574
   A15        1.93702   0.00007   0.00000   0.00496   0.00502   1.94204
   A16        2.17064  -0.00073   0.00001  -0.00671  -0.00754   2.16311
   A17        1.96819   0.00032   0.00000   0.00659   0.00575   1.97395
   A18        2.14091   0.00054   0.00000   0.00598   0.00515   2.14606
   A19        1.89936   0.00112  -0.00001   0.01667   0.01666   1.91602
   A20        1.86451   0.00167  -0.00001   0.02116   0.02115   1.88565
    D1        2.89298  -0.00042   0.00002  -0.00760  -0.00693   2.88606
    D2       -1.31837  -0.00059   0.00003  -0.01646  -0.01580  -1.33417
    D3        0.80185  -0.00053   0.00003  -0.01356  -0.01291   0.78895
    D4        0.73076   0.00097  -0.00012   0.09775   0.09702   0.82778
    D5        2.80259   0.00080  -0.00011   0.08890   0.08815   2.89074
    D6       -1.36037   0.00086  -0.00011   0.09180   0.09104  -1.26933
    D7       -1.00053   0.00038  -0.00005   0.02994   0.02979  -0.97074
    D8        1.07833  -0.00022  -0.00002   0.00349   0.00357   1.08190
    D9       -3.10179  -0.00006  -0.00003   0.01246   0.01243  -3.08936
   D10        1.07080   0.00038  -0.00005   0.03062   0.03047   1.10127
   D11       -3.13352  -0.00022  -0.00001   0.00417   0.00425  -3.12928
   D12       -1.03046  -0.00006  -0.00003   0.01314   0.01311  -1.01735
   D13       -3.14086   0.00030  -0.00003   0.02068   0.02056  -3.12030
   D14       -1.06200  -0.00029   0.00000  -0.00577  -0.00566  -1.06766
   D15        1.04106  -0.00013  -0.00001   0.00320   0.00320   1.04426
   D16       -1.08727  -0.00065  -0.00015  -0.00263  -0.00271  -1.08998
   D17        1.96715   0.00103   0.00005   0.07200   0.07197   2.03912
   D18        3.10454  -0.00091  -0.00014  -0.01322  -0.01328   3.09127
   D19       -0.12422   0.00077   0.00006   0.06141   0.06140  -0.06282
   D20        1.03227  -0.00083  -0.00016   0.00139   0.00130   1.03356
   D21       -2.19650   0.00086   0.00004   0.07601   0.07597  -2.12052
   D22       -2.87706   0.00001   0.00000   0.00113   0.00117  -2.87589
   D23        1.33668   0.00008   0.00000   0.00009   0.00000   1.33668
   D24       -0.79251  -0.00011   0.00000  -0.00041  -0.00037  -0.79287
   D25       -3.10336  -0.00078  -0.00011  -0.03185  -0.03220  -3.13555
   D26       -0.04723   0.00080   0.00009   0.04059   0.04092  -0.00631
         Item               Value     Threshold  Converged?
 Maximum Force            0.002669     0.000450     NO 
 RMS     Force            0.000798     0.000300     NO 
 Maximum Displacement     0.095861     0.001800     NO 
 RMS     Displacement     0.028948     0.001200     NO 
 Predicted change in Energy=-4.213417D-04
 GradGradGradGradGradGradGradGradGradGradGradGradGradGradGradGradGradGrad

                          Input orientation:                          
 ---------------------------------------------------------------------
 Center     Atomic      Atomic             Coordinates (Angstroms)
 Number     Number       Type             X           Y           Z
 ---------------------------------------------------------------------
      1          7           0       -0.152010    2.032441    0.116292
      2          1           0        0.123765    2.164352   -0.853985
      3          6           0       -0.262063    0.601999    0.428759
      4          1           0       -0.298691    0.476277    1.512482
      5          6           0       -1.558800    0.049672   -0.159395
      6          6           0        0.928980   -0.199225   -0.115917
      7          1           0       -2.384691    0.654764    0.230381
      8          1           0       -1.523957    0.161038   -1.250067
      9          8           0       -1.674836   -1.320801    0.217235
     10          8           0        1.196179   -0.294216   -1.284998
     11          1           0       -2.340858   -1.750878   -0.323396
     12          1           0        0.566010    2.469351    0.685351
     13          8           0        1.664424   -0.780743    0.855062
     14          1           0        2.395198   -1.259655    0.432532
 ---------------------------------------------------------------------
                    Distance matrix (angstroms):
                    1          2          3          4          5
     1  N    0.000000
     2  H    1.017294   0.000000
     3  C    1.468302   2.057970   0.000000
     4  H    2.095832   2.937385   1.091606   0.000000
     5  C    2.446720   2.790224   1.527258   2.136595   0.000000
     6  C    2.490541   2.603769   1.535323   2.148293   2.500578
     7  H    2.626000   3.122027   2.132530   2.455002   1.095517
     8  H    2.692828   2.623954   2.145991   3.038475   1.096897
     9  O    3.684213   4.065559   2.395377   2.607860   1.426012
    10  O    3.032253   2.716689   2.422114   3.264075   2.995855
    11  H    4.392936   4.656706   3.228491   3.535691   1.969896
    12  H    1.015023   1.630387   2.058773   2.324693   3.329153
    13  O    3.429172   3.737386   2.409370   2.422007   3.479638
    14  H    4.174467   4.305619   3.244505   3.381833   4.206996
                    6          7          8          9         10
     6  C    0.000000
     7  H    3.439424   0.000000
     8  H    2.726350   1.782233   0.000000
     9  O    2.854607   2.099267   2.090834   0.000000
    10  O    1.202983   4.002445   2.758190   3.399016   0.000000
    11  H    3.625261   2.468947   2.276284   0.959600   3.944258
    12  H    2.809818   3.493760   3.666349   4.427841   3.452056
[...]
 ! R10   R(6,10)                 1.2074         -DE/DX =    0.0                 !
 ! R11   R(6,13)                 1.3492         -DE/DX =    0.0                 !
 ! R12   R(9,11)                 0.9611         -DE/DX =    0.0                 !
 ! R13   R(13,14)                0.9701         -DE/DX =    0.0                 !
 ! A1    A(2,1,3)              110.3304         -DE/DX =    0.0                 !
 ! A2    A(2,1,12)             107.6889         -DE/DX =    0.0                 !
 ! A3    A(3,1,12)             111.2044         -DE/DX =    0.0                 !
 ! A4    A(1,3,4)              108.9871         -DE/DX =    0.0                 !
 ! A5    A(1,3,5)              108.6875         -DE/DX =    0.0                 !
 ! A6    A(1,3,6)              112.2597         -DE/DX =    0.0                 !
 ! A7    A(4,3,5)              108.7589         -DE/DX =    0.0                 !
 ! A8    A(4,3,6)              108.8141         -DE/DX =    0.0                 !
 ! A9    A(5,3,6)              109.2735         -DE/DX =    0.0                 !
 ! A10   A(3,5,7)              108.0297         -DE/DX =    0.0                 !
 ! A11   A(3,5,8)              108.8898         -DE/DX =    0.0                 !
 ! A12   A(3,5,9)              107.9797         -DE/DX =    0.0                 !
 ! A13   A(7,5,8)              108.9095         -DE/DX =    0.0                 !
 ! A14   A(7,5,9)              111.7889         -DE/DX =    0.0                 !
 ! A15   A(8,5,9)              111.1508         -DE/DX =    0.0                 !
 ! A16   A(3,6,10)             123.9711         -DE/DX =    0.0                 !
 ! A17   A(3,6,13)             112.9832         -DE/DX =    0.0                 !
 ! A18   A(10,6,13)            123.0155         -DE/DX =    0.0                 !
 ! A19   A(5,9,11)             109.1452         -DE/DX =    0.0                 !
 ! A20   A(6,13,14)            107.4215         -DE/DX =    0.0                 !
 ! D1    D(2,1,3,4)            166.6886         -DE/DX =    0.0                 !
 ! D2    D(2,1,3,5)            -74.9262         -DE/DX =    0.0                 !
 ! D3    D(2,1,3,6)             46.0679         -DE/DX =    0.0                 !
 ! D4    D(12,1,3,4)            47.2617         -DE/DX =    0.0                 !
 ! D5    D(12,1,3,5)           165.6469         -DE/DX =    0.0                 !
 ! D6    D(12,1,3,6)           -73.359          -DE/DX =    0.0                 !
 ! D7    D(1,3,5,7)            -58.1236         -DE/DX =    0.0                 !
 ! D8    D(1,3,5,8)             60.0137         -DE/DX =    0.0                 !
 ! D9    D(1,3,5,9)           -179.1899         -DE/DX =    0.0                 !
 ! D10   D(4,3,5,7)             60.4055         -DE/DX =    0.0                 !
 ! D11   D(4,3,5,8)            178.5428         -DE/DX =    0.0                 !
 ! D12   D(4,3,5,9)            -60.6608         -DE/DX =    0.0                 !
 ! D13   D(6,3,5,7)            179.0631         -DE/DX =    0.0                 !
 ! D14   D(6,3,5,8)            -62.7996         -DE/DX =    0.0                 !
 ! D15   D(6,3,5,9)             57.9968         -DE/DX =    0.0                 !
 ! D16   D(1,3,6,10)           -54.3682         -DE/DX =    0.0                 !
 ! D17   D(1,3,6,13)           123.6805         -DE/DX =    0.0                 !
 ! D18   D(4,3,6,10)          -175.0887         -DE/DX =    0.0                 !
 ! D19   D(4,3,6,13)             2.96           -DE/DX =    0.0                 !
 ! D20   D(5,3,6,10)            66.2881         -DE/DX =    0.0                 !
 ! D21   D(5,3,6,13)          -115.6631         -DE/DX =    0.0                 !
 ! D22   D(3,5,9,11)          -169.3838         -DE/DX =    0.0                 !
 ! D23   D(7,5,9,11)            71.9199         -DE/DX =    0.0                 !
 ! D24   D(8,5,9,11)           -50.0096         -DE/DX =    0.0                 !
 ! D25   D(3,6,13,14)          179.3181         -DE/DX =    0.0                 !
 ! D26   D(10,6,13,14)          -2.6117         -DE/DX =    0.0                 !
 --------------------------------------------------------------------------------
 GradGradGradGradGradGradGradGradGradGradGradGradGradGradGradGradGradGrad

                          Input orientation:                          
 ---------------------------------------------------------------------
 Center     Atomic      Atomic             Coordinates (Angstroms)
 Number     Number       Type             X           Y           Z
 ---------------------------------------------------------------------
      1          7           0       -0.163483    2.033330    0.095766
      2          1           0        0.085354    2.149557   -0.882503
      3          6           0       -0.249608    0.612964    0.432818
      4          1           0       -0.280599    0.506943    1.518314
      5          6           0       -1.544168    0.047705   -0.153771
      6          6           0        0.940248   -0.184348   -0.107300
      7          1           0       -2.381395    0.620662    0.258132
      8          1           0       -1.526664    0.176958   -1.243178
      9          8           0       -1.622037   -1.331324    0.199453
     10          8           0        1.280429   -0.187176   -1.265772
     11          1           0       -2.336199   -1.743382   -0.294452
     12          1           0        0.544850    2.499774    0.651335
     13          8           0        1.603602   -0.857947    0.855327
     14          1           0        2.328319   -1.339340    0.426167
 ---------------------------------------------------------------------
                    Distance matrix (angstroms):
                    1          2          3          4          5
     1  N    0.000000
     2  H    1.016089   0.000000
     3  C    1.462348   2.050216   0.000000
     4  H    2.089789   2.931898   1.091102   0.000000
     5  C    2.431310   2.757566   1.529539   2.145548   0.000000
     6  C    2.485468   2.603631   1.530748   2.147317   2.495662
     7  H    2.634602   3.118239   2.138946   2.452414   1.094940
     8  H    2.664047   2.572904   2.151729   3.047525   1.097187
     9  O    3.668654   4.025213   2.391292   2.630223   1.425675
    10  O    2.978139   2.652436   2.422074   3.266458   3.044678
    11  H    4.374530   4.622195   3.230348   3.546205   1.963440
    12  H    1.013886   1.639039   2.058875   2.324736   3.320367
    13  O    3.472608   3.790806   2.403431   2.419233   3.427381
    14  H    4.206322   4.349242   3.233766   3.377573   4.154079
                    6          7          8          9         10
     6  C    0.000000
     7  H    3.437280   0.000000
     8  H    2.739784   1.783639   0.000000
     9  O    2.823996   2.095308   2.089305   0.000000
    10  O    1.207389   4.047696   2.830703   3.446777   0.000000
    11  H    3.633279   2.428188   2.289789   0.961125   4.055273
    12  H    2.817158   3.499798   3.643601   4.424580   3.381727
    13  O    1.349231   4.292217   3.908110   3.325509   2.247985
    14  H    1.882906   5.104043   4.466180   3.956865   2.299611
                   11         12         13         14
    11  H    0.000000
    12  H    5.215298   0.000000
    13  O    4.198573   3.526593   0.000000
    14  H    4.737116   4.239134   0.970120   0.000000
 Stoichiometry    C3H7NO3
 Framework group  C1[X(C3H7NO3)]
 Deg. of freedom    36
 Full point group                 C1      NOp   1
 Largest Abelian subgroup         C1      NOp   1
 Largest concise Abelian subgroup C1      NOp   1
                         Standard orientation:                         
 ---------------------------------------------------------------------
 Center     Atomic      Atomic             Coordinates (Angstroms)
 Number     Number       Type             X           Y           Z
 ---------------------------------------------------------------------
      1          7           0        0.147315    2.008892   -0.210518
      2          1           0       -0.127551    2.182995    0.752069
      3          6           0        0.258183    0.571425   -0.455174
      4          1           0        0.317890    0.397950   -1.530741
      5          6           0        1.543833    0.060941    0.197514
      6          6           0       -0.935792   -0.205846    0.104704
      7          1           0        2.384630    0.617774   -0.228974
      8          1           0        1.497244    0.258020    1.275850
      9          8           0        1.646386   -1.336396   -0.066085
     10          8           0       -1.305175   -0.140440    1.252340
     11          1           0        2.352460   -1.707351    0.470210
     12          1           0       -0.551991    2.430330   -0.811620
     13          8           0       -1.566790   -0.947053   -0.829575
     14          1           0       -2.296604   -1.409966   -0.388875
 ---------------------------------------------------------------------
 Rotational constants (GHZ):      3.0463660      2.3529003      1.7438078

 **********************************************************************

            Population analysis using the SCF density.

 **********************************************************************

 Orbital symmetries:
       Occupied  (A) (A) (A) (A) (A) (A) (A) (A) (A) (A) (A) (A)
                 (A) (A) (A) (A) (A) (A) (A) (A) (A) (A) (A) (A)
                 (A) (A) (A) (A)
       Virtual   (A) (A) (A) (A) (A) (A) (A) (A) (A) (A) (A) (A)
                 (A) (A) (A) (A) (A) (A) (A) (A) (A) (A) (A) (A)
                 (A) (A) (A) (A) (A) (A) (A) (A) (A) (A) (A) (A)
                 (A) (A) (A) (A) (A) (A) (A) (A) (A) (A) (A) (A)
                 (A) (A) (A) (A) (A) (A) (A) (A) (A) (A) (A) (A)
                 (A) (A) (A) (A) (A) (A) (A) (A) (A) (A) (A) (A)
                 (A) (A) (A) (A) (A) (A) (A) (A) (A) (A) (A) (A)
                 (A) (A) (A) (A) (A) (A) (A) (A) (A) (A) (A) (A)
                 (A) (A) (A) (A) (A) (A) (A) (A) (A) (A) (A) (A)
                 (A) (A) (A) (A) (A) (A) (A) (A) (A) (A) (A) (A)
                 (A) (A) (A) (A) (A) (A) (A) (A) (A) (A) (A) (A)
                 (A) (A) (A) (A) (A) (A) (A) (A) (A) (A) (A) (A)
                 (A) (A) (A) (A) (A) (A) (A) (A) (A) (A) (A) (A)
                 (A) (A) (A) (A) (A) (A) (A) (A) (A) (A) (A) (A)
                 (A) (A) (A) (A) (A) (A) (A)
 The electronic state is 1-A.
 Alpha  occ. eigenvalues --  -19.18253 -19.13688 -19.12480 -14.31478 -10.31259
 Alpha  occ. eigenvalues --  -10.23065 -10.22606  -1.12327  -1.03927  -1.03346
 Alpha  occ. eigenvalues --   -0.91019  -0.75635  -0.67820  -0.59626  -0.54319
 Alpha  occ. eigenvalues --   -0.53726  -0.49757  -0.49143  -0.46919  -0.45061
 Alpha  occ. eigenvalues --   -0.42538  -0.40930  -0.39580  -0.35322  -0.33617
 Alpha  occ. eigenvalues --   -0.30320  -0.29350  -0.26356
 Alpha virt. eigenvalues --   -0.02039  -0.01414  -0.00329   0.00203   0.01740
 Alpha virt. eigenvalues --    0.03098   0.04687   0.05326   0.06694   0.07428
 Alpha virt. eigenvalues --    0.08537   0.09661   0.09886   0.10074   0.10862
 Alpha virt. eigenvalues --    0.12027   0.12615   0.12884   0.13440   0.14927
 Alpha virt. eigenvalues --    0.15700   0.16093   0.17407   0.18269   0.18918
 Alpha virt. eigenvalues --    0.19729   0.20598   0.22241   0.22970   0.23123
 Alpha virt. eigenvalues --    0.24014   0.24760   0.25839   0.26559   0.27901
 Alpha virt. eigenvalues --    0.28367   0.29390   0.29577   0.30739   0.31520
 Alpha virt. eigenvalues --    0.32242   0.34217   0.34376   0.35026   0.35862
 Alpha virt. eigenvalues --    0.37928   0.38162   0.41062   0.47566   0.48164
 Alpha virt. eigenvalues --    0.52757   0.53443   0.54416   0.56209   0.57596
 Alpha virt. eigenvalues --    0.59753   0.61083   0.63095   0.63938   0.66809
 Alpha virt. eigenvalues --    0.68547   0.69499   0.70651   0.74125   0.75869
 Alpha virt. eigenvalues --    0.82488   0.83302   0.85318   0.88014   0.94308
 Alpha virt. eigenvalues --    0.98966   1.00970   1.06164   1.07928   1.09670
 Alpha virt. eigenvalues --    1.11342   1.13106   1.15156   1.17263   1.18896
 Alpha virt. eigenvalues --    1.21039   1.24589   1.26100   1.27403   1.33550
 Alpha virt. eigenvalues --    1.35842   1.41272   1.44417   1.46114   1.48410
 Alpha virt. eigenvalues --    1.52920   1.55070   1.56759   1.58112   1.59323
 Alpha virt. eigenvalues --    1.61812   1.63126   1.64693   1.67875   1.72832
 Alpha virt. eigenvalues --    1.73519   1.74607   1.76130   1.81244   1.83490
 Alpha virt. eigenvalues --    1.87139   1.89579   1.92466   1.97405   2.04128
 Alpha virt. eigenvalues --    2.05226   2.06699   2.09331   2.17248   2.22814
 Alpha virt. eigenvalues --    2.25680   2.33207   2.42861   2.49901   2.50836
 Alpha virt. eigenvalues --    2.53864   2.56509   2.58976   2.60215   2.62775
 Alpha virt. eigenvalues --    2.69598   2.70324   2.74219   2.78977   2.84343
 Alpha virt. eigenvalues --    2.84441   2.90074   2.90449   2.93606   2.97290
 Alpha virt. eigenvalues --    3.00052   3.05603   3.07869   3.10403   3.13015
 Alpha virt. eigenvalues --    3.17216   3.20965   3.22038   3.28345   3.31253
 Alpha virt. eigenvalues --    3.37756   3.56359   3.61580   3.64849   3.77697
 Alpha virt. eigenvalues --    3.81348   3.87562   3.97916   4.03450   4.08981
 Alpha virt. eigenvalues --    4.13258   4.26701   4.72763   4.83249   4.97458
 Alpha virt. eigenvalues --    5.01892   5.08453   5.17618   5.36101   5.39805
 Alpha virt. eigenvalues --    5.58635   5.65898   5.84513  23.78427  23.80806
 Alpha virt. eigenvalues --   23.84555  35.59080  49.85601  49.90723  50.01603
          Condensed to atoms (all electrons):
               1          2          3          4          5          6
     1  N    6.747671   0.398442  -0.359086  -0.075490   0.171761   0.027893
     2  H    0.398442   0.455955  -0.083854   0.008913   0.022775  -0.004102
     3  C   -0.359086  -0.083854   8.453772   0.545686  -1.045950  -0.596838
     4  H   -0.075490   0.008913   0.545686   0.567372  -0.152160  -0.131979
     5  C    0.171761   0.022775  -1.045950  -0.152160   6.139161   0.205122
     6  C    0.027893  -0.004102  -0.596838  -0.131979   0.205122   5.785223
     7  H    0.026702   0.005963  -0.243347  -0.047503   0.555897   0.037643
     8  H   -0.028216  -0.003040   0.171676   0.032960   0.220606  -0.068136
     9  O    0.006489   0.002458  -0.048192  -0.004154   0.168715  -0.028283
    10  O   -0.038038   0.012836  -0.009404   0.008316  -0.049460   0.442481
    11  H    0.001564   0.000541  -0.050606   0.002883   0.051057   0.009558
    12  H    0.379827  -0.051340  -0.008845  -0.016245  -0.011986   0.004323
    13  O   -0.000102  -0.001109  -0.159418   0.001627  -0.025216   0.206383
    14  H   -0.000224  -0.000117  -0.005685   0.001877  -0.000786   0.008044
               7          8          9         10         11         12
     1  N    0.026702  -0.028216   0.006489  -0.038038   0.001564   0.379827
     2  H    0.005963  -0.003040   0.002458   0.012836   0.000541  -0.051340
     3  C   -0.243347   0.171676  -0.048192  -0.009404  -0.050606  -0.008845
     4  H   -0.047503   0.032960  -0.004154   0.008316   0.002883  -0.016245
     5  C    0.555897   0.220606   0.168715  -0.049460   0.051057  -0.011986
     6  C    0.037643  -0.068136  -0.028283   0.442481   0.009558   0.004323
     7  H    0.639351  -0.095091  -0.063104   0.000811   0.002482  -0.000622
     8  H   -0.095091   0.652327  -0.050301  -0.002159  -0.015985   0.000139
     9  O   -0.063104  -0.050301   8.083477  -0.005302   0.201174  -0.000870
    10  O    0.000811  -0.002159  -0.005302   8.059789   0.000879  -0.002584
    11  H    0.002482  -0.015985   0.201174   0.000879   0.534904  -0.000494
    12  H   -0.000622   0.000139  -0.000870  -0.002584  -0.000494   0.460778
    13  O   -0.002437   0.002437   0.002457  -0.144704   0.001309   0.001843
    14  H    0.000393  -0.000990   0.000146   0.003358  -0.000189   0.000076
              13         14
     1  N   -0.000102  -0.000224
     2  H   -0.001109  -0.000117
     3  C   -0.159418  -0.005685
     4  H    0.001627   0.001877
     5  C   -0.025216  -0.000786
     6  C    0.206383   0.008044
     7  H   -0.002437   0.000393
     8  H    0.002437  -0.000990
     9  O    0.002457   0.000146
    10  O   -0.144704   0.003358
    11  H    0.001309  -0.000189
    12  H    0.001843   0.000076
    13  O    7.992041   0.261401
    14  H    0.261401   0.455818
 Mulliken charges:
               1
     1  N   -0.259194
     2  H    0.235678
     3  C   -0.559909
     4  H    0.257897
     5  C   -0.249536
     6  C    0.102667
     7  H    0.182862
     8  H    0.183773
     9  O   -0.264711
    10  O   -0.276819
    11  H    0.260923
    12  H    0.246000
    13  O   -0.136512
    14  H    0.276880
 Sum of Mulliken charges =   0.00000
 Mulliken charges with hydrogens summed into heavy atoms:
               1
     1  N    0.222484
     3  C   -0.302012
     5  C    0.117100
     6  C    0.102667
     9  O   -0.003787
    10  O   -0.276819
    13  O    0.140368
 Electronic spatial extent (au):  <R**2>=            762.1994
 Charge=              0.0000 electrons
 Dipole moment (field-independent basis, Debye):
    X=              0.2857    Y=              0.1541    Z=             -0.1949  Tot=              0.3786
 Quadrupole moment (field-independent basis, Debye-Ang):
   XX=            -35.3663   YY=            -41.3171   ZZ=            -45.1882
   XY=             -2.1619   XZ=              5.6288   YZ=             -1.9891
 Traceless Quadrupole moment (field-independent basis, Debye-Ang):
   XX=              5.2576   YY=             -0.6933   ZZ=             -4.5643
   XY=             -2.1619   XZ=              5.6288   YZ=             -1.9891
 Octapole moment (field-independent basis, Debye-Ang**2):
  XXX=              0.0915  YYY=            -12.3722  ZZZ=             -3.4476  XYY=            -14.1996
  XXY=            -19.4451  XXZ=              2.2970  XZZ=              6.9974  YZZ=              3.1625
  YYZ=              5.8185  XYZ=             -2.8439
 Hexadecapole moment (field-independent basis, Debye-Ang**3):
 XXXX=           -370.3995 YYYY=           -335.8665 ZZZZ=           -156.0848 XXXY=             -2.9517
 XXXZ=             24.3610 YYYX=            -30.9419 YYYZ=             -0.4704 ZZZX=              7.2248
 ZZZY=             -1.2550 XXYY=           -103.6648 XXZZ=           -109.1399 YYZZ=            -76.9681
 XXYZ=             -9.1743 YYXZ=             14.5253 ZZXY=             -6.8655
 N-N= 3.241681034835D+02 E-N=-1.585315083972D+03  KE= 3.976810180741D+02
 1\1\GINC-BREEZE\FOpt\RB3LYP\6-311++G(d,p)\C3H7N1O3\SKY\28-Mar-2016\0\\
 # opt b3lyp/6-311++g(d,p) geom=connectivity\\Ser-S-opt-6-311++g(d,p)\\
 0,1\N,-0.1634826565,2.0333297714,0.0957655004\H,0.0853538706,2.1495565
 008,-0.882502814\C,-0.2496077571,0.6129638832,0.4328179104\H,-0.280599
 0951,0.5069427302,1.5183143337\C,-1.5441677941,0.0477047693,-0.1537714
 154\C,0.940248004,-0.1843480346,-0.1072997774\H,-2.3813951274,0.620662
 2025,0.2581323418\H,-1.526664388,0.1769582563,-1.2431776729\O,-1.62203
 7291,-1.3313235159,0.19945316\O,1.2804290516,-0.1871758031,-1.26577204
 53\H,-2.3361985047,-1.7433821369,-0.294452023\H,0.5448504,2.4997740958
 ,0.651335344\O,1.603602353,-0.857946699,0.8553273305\H,2.3283189348,-1
 .33934002,0.4261668269\\Version=ES64L-G09RevD.01\State=1-A\HF=-399.091
 892\RMSD=6.456e-09\RMSF=6.816e-06\Dipole=-0.1112634,0.0640392,0.075564
 4\Quadrupole=4.0666468,-0.2975776,-3.7690692,1.9491057,3.8666627,1.283
 5684\PG=C01 [X(C3H7N1O3)]\\@


 Age does not diminish the extreme disappointment of
 having a scoop of ice cream fall from the cone.
 -- Jim Fiebig
 Job cpu time:       0 days  0 hours 30 minutes  9.3 seconds.
 File lengths (MBytes):  RWF=     27 Int=      0 D2E=      0 Chk=      4 Scr=      1
 Normal termination of Gaussian 09 at Mon Mar 28 04:23:25 2016.
