 Entering Link 1 = c:\G09w03\l1.exe PID=      1352.
  
 Copyright (c) 1988,1990,1992,1993,1995,1998,2003,2009,2010,
            Gaussian, Inc.  All Rights Reserved.
  
 This is part of the Gaussian(R) 09 program.  It is based on
 the Gaussian(R) 03 system (copyright 2003, Gaussian, Inc.),
 the Gaussian(R) 98 system (copyright 1998, Gaussian, Inc.),
 the Gaussian(R) 94 system (copyright 1995, Gaussian, Inc.),
 the Gaussian 92(TM) system (copyright 1992, Gaussian, Inc.),
 the Gaussian 90(TM) system (copyright 1990, Gaussian, Inc.),
 the Gaussian 88(TM) system (copyright 1988, Gaussian, Inc.),
 the Gaussian 86(TM) system (copyright 1986, Carnegie Mellon
 University), and the Gaussian 82(TM) system (copyright 1983,
 Carnegie Mellon University). Gaussian is a federally registered
 trademark of Gaussian, Inc.
  
 This software contains proprietary and confidential information,
 including trade secrets, belonging to Gaussian, Inc.
  
 This software is provided under written license and may be
 used, copied, transmitted, or stored only in accord with that
 written license.
  
 The following legend is applicable only to US Government
 contracts under FAR:
  
                    RESTRICTED RIGHTS LEGEND
  
 Use, reproduction and disclosure by the US Government is
 subject to restrictions as set forth in subparagraphs (a)
 and (c) of the Commercial Computer Software - Restricted
 Rights clause in FAR 52.227-19.
  
 Gaussian, Inc.
 340 Quinnipiac St., Bldg. 40, Wallingford CT 06492
  
  
 ---------------------------------------------------------------
 Warning -- This program may not be used in any manner that
 competes with the business of Gaussian, Inc. or will provide
 assistance to any competitor of Gaussian, Inc.  The licensee
 of this program is prohibited from giving any competitor of
 Gaussian, Inc. access to this program.  By using this program,
 the user acknowledges that Gaussian, Inc. is engaged in the
 business of creating and licensing software in the field of
 computational chemistry and represents and warrants to the
 licensee that it is not a competitor of Gaussian, Inc. and that
 it will not use this program in any manner prohibited above.
 ---------------------------------------------------------------
  

 Cite this work as:
 Gaussian 09, Revision B.01,
 M. J. Frisch, G. W. Trucks, H. B. Schlegel, G. E. Scuseria, 
 M. A. Robb, J. R. Cheeseman, G. Scalmani, V. Barone, B. Mennucci, 
 G. A. Petersson, H. Nakatsuji, M. Caricato, X. Li, H. P. Hratchian, 
 A. F. Izmaylov, J. Bloino, G. Zheng, J. L. Sonnenberg, M. Hada, 
 M. Ehara, K. Toyota, R. Fukuda, J. Hasegawa, M. Ishida, T. Nakajima, 
 Y. Honda, O. Kitao, H. Nakai, T. Vreven, J. A. Montgomery, Jr., 
 J. E. Peralta, F. Ogliaro, M. Bearpark, J. J. Heyd, E. Brothers, 
 K. N. Kudin, V. N. Staroverov, T. Keith, R. Kobayashi, J. Normand, 
 K. Raghavachari, A. Rendell, J. C. Burant, S. S. Iyengar, J. Tomasi, 
 M. Cossi, N. Rega, J. M. Millam, M. Klene, J. E. Knox, J. B. Cross, 
 V. Bakken, C. Adamo, J. Jaramillo, R. Gomperts, R. E. Stratmann, 
 O. Yazyev, A. J. Austin, R. Cammi, C. Pomelli, J. W. Ochterski, 
 R. L. Martin, K. Morokuma, V. G. Zakrzewski, G. A. Voth, 
 P. Salvador, J. J. Dannenberg, S. Dapprich, A. D. Daniels, 
 O. Farkas, J. B. Foresman, J. V. Ortiz, J. Cioslowski, 
 and D. J. Fox, Gaussian, Inc., Wallingford CT, 2010.
 
 ******************************************
 Gaussian 09:  IA32W-G09RevB.01 12-Aug-2010
                18-Apr-2016 
 ******************************************
 %chk=Ala-S-opt-freq-cpcm-w-pa2-6-311++gdp.chk
 -----------------------------------------------------------------
 #p opt freq rb3lyp/6-311++g(d,p) scrf=(cpcm,solvent=water) nosymm
 -----------------------------------------------------------------
 1/14=-1,18=20,19=15,26=3,38=1/1,3;
 2/9=110,12=2,15=1,17=6,18=5,40=1/2;
 3/5=4,6=6,7=1111,11=2,16=1,25=1,30=1,70=2101,71=1,72=1,74=-5,116=1/1,2,3;
 4//1;
 5/5=2,38=5,53=1/2;
 6/7=2,8=2,9=2,10=2,28=1/1;
 7/30=1/1,2,3,16;
 1/14=-1,18=20,19=15/3(2);
 2/9=110,15=1/2;
 99//99;
 2/9=110,15=1/2;
 3/5=4,6=6,7=1111,11=2,16=1,25=1,30=1,70=2105,71=1,72=1,74=-5,116=1/1,2,3;
 4/5=5,16=3/1;
 5/5=2,38=5,53=1/2;
 7/30=1/1,2,3,16;
 1/14=-1,18=20,19=15/3(-5);
 2/9=110,15=1/2;
 6/7=2,8=2,9=2,10=2,19=2,28=1/1;
 99/9=1/99;
 Leave Link    1 at Mon Apr 18 09:27:45 2016, MaxMem=          0 cpu:       0.0
 (Enter c:\G09w03\l101.exe)
 ------------------------------------
 Ala-S-opt-freq-cpcm-w-pa2-6-311++gdp
 ------------------------------------
 Symbolic Z-matrix:
 Charge =  0 Multiplicity = 1
 N                    -1.35149  -1.20547   0.09049 
 H                    -2.32211  -1.03594   0.32688 
 C                    -0.6408    0.03473  -0.12517 
 H                     0.38276   0.90942  -1.1029 
 C                    -1.28859   1.21497   0.60095 
 C                     0.78676  -0.02196  -0.07805 
 H                    -1.49012   0.95364   1.65025 
 H                    -0.65626   2.10339   0.59122 
 H                    -2.24169   1.47555   0.13323 
 O                     1.53029  -0.95198   0.48195 
 H                    -1.33719  -1.80261  -0.72884 
 O                     1.31755   0.91149  -0.80867 
 H                     2.44118  -0.89814   0.15113 
 
 NAtoms=     13 NQM=     13 NQMF=      0 NMic=      0 NMicF=      0 NTot=     13.
                    Isotopes and Nuclear Properties:
 (Nuclear quadrupole moments (NQMom) in fm**2, nuclear magnetic moments (NMagM)
  in nuclear magnetons)

  Atom         1           2           3           4           5           6           7           8           9          10
 IAtWgt=          14           1          12           1          12          12           1           1           1          16
 AtmWgt=  14.0030740   1.0078250  12.0000000   1.0078250  12.0000000  12.0000000   1.0078250   1.0078250   1.0078250  15.9949146
 NucSpn=           2           1           0           1           0           0           1           1           1           0
 AtZEff=   0.0000000   0.0000000   0.0000000   0.0000000   0.0000000   0.0000000   0.0000000   0.0000000   0.0000000   0.0000000
 NQMom=    2.0440000   0.0000000   0.0000000   0.0000000   0.0000000   0.0000000   0.0000000   0.0000000   0.0000000   0.0000000
 NMagM=    0.4037610   2.7928460   0.0000000   2.7928460   0.0000000   0.0000000   2.7928460   2.7928460   2.7928460   0.0000000

  Atom        11          12          13
 IAtWgt=           1          16           1
 AtmWgt=   1.0078250  15.9949146   1.0078250
 NucSpn=           1           0           1
 AtZEff=   0.0000000   0.0000000   0.0000000
 NQMom=    0.0000000   0.0000000   0.0000000
 NMagM=    2.7928460   0.0000000   2.7928460
 Leave Link  101 at Mon Apr 18 09:27:45 2016, MaxMem=   33554432 cpu:       0.0
 (Enter c:\G09w03\l103.exe)

 GradGradGradGradGradGradGradGradGradGradGradGradGradGradGradGradGradGrad
 Berny optimization.
 Initialization pass.
                           ----------------------------
                           !    Initial Parameters    !
                           ! (Angstroms and Degrees)  !
 --------------------------                            --------------------------
 ! Name  Definition              Value          Derivative Info.                !
 --------------------------------------------------------------------------------
 ! R1    R(1,2)                  1.0133         estimate D2E/DX2                !
 ! R2    R(1,3)                  1.4456         estimate D2E/DX2                !
 ! R3    R(1,11)                 1.0139         estimate D2E/DX2                !
 ! R4    R(3,5)                  1.5297         estimate D2E/DX2                !
 ! R5    R(3,6)                  1.4295         estimate D2E/DX2                !
 ! R6    R(4,6)                  1.4426         estimate D2E/DX2                !
 ! R7    R(4,12)                 0.98           estimate D2E/DX2                !
 ! R8    R(5,7)                  1.1            estimate D2E/DX2                !
 ! R9    R(5,8)                  1.0905         estimate D2E/DX2                !
 ! R10   R(5,9)                  1.0932         estimate D2E/DX2                !
 ! R11   R(6,10)                 1.3158         estimate D2E/DX2                !
 ! R12   R(6,12)                 1.2988         estimate D2E/DX2                !
 ! R13   R(10,13)                0.9706         estimate D2E/DX2                !
 ! A1    A(2,1,3)              111.2355         estimate D2E/DX2                !
 ! A2    A(2,1,11)             107.4914         estimate D2E/DX2                !
 ! A3    A(3,1,11)             112.1956         estimate D2E/DX2                !
 ! A4    A(1,3,5)              112.5157         estimate D2E/DX2                !
 ! A5    A(1,3,6)              116.8743         estimate D2E/DX2                !
 ! A6    A(5,3,6)              115.9682         estimate D2E/DX2                !
 ! A7    A(3,5,7)              110.3103         estimate D2E/DX2                !
 ! A8    A(3,5,8)              112.2587         estimate D2E/DX2                !
 ! A9    A(3,5,9)              110.4891         estimate D2E/DX2                !
 ! A10   A(7,5,8)              107.9568         estimate D2E/DX2                !
 ! A11   A(7,5,9)              107.7605         estimate D2E/DX2                !
 ! A12   A(8,5,9)              107.9109         estimate D2E/DX2                !
 ! A13   A(3,6,10)             127.3283         estimate D2E/DX2                !
 ! A14   A(3,6,12)             111.167          estimate D2E/DX2                !
 ! A15   A(10,6,12)            121.095          estimate D2E/DX2                !
 ! A16   A(6,10,13)            110.2458         estimate D2E/DX2                !
 ! A17   A(4,12,6)              77.1471         estimate D2E/DX2                !
 ! D1    D(2,1,3,5)             24.3922         estimate D2E/DX2                !
 ! D2    D(2,1,3,6)            162.2488         estimate D2E/DX2                !
 ! D3    D(11,1,3,5)           144.8437         estimate D2E/DX2                !
 ! D4    D(11,1,3,6)           -77.2998         estimate D2E/DX2                !
 ! D5    D(1,3,5,7)             48.9327         estimate D2E/DX2                !
 ! D6    D(1,3,5,8)            169.3763         estimate D2E/DX2                !
 ! D7    D(1,3,5,9)            -70.1143         estimate D2E/DX2                !
 ! D8    D(6,3,5,7)            -89.3284         estimate D2E/DX2                !
 ! D9    D(6,3,5,8)             31.1153         estimate D2E/DX2                !
 ! D10   D(6,3,5,9)            151.6246         estimate D2E/DX2                !
 ! D11   D(1,3,6,10)           -20.0818         estimate D2E/DX2                !
 ! D12   D(1,3,6,12)           152.5575         estimate D2E/DX2                !
 ! D13   D(5,3,6,10)           116.3315         estimate D2E/DX2                !
 ! D14   D(5,3,6,12)           -71.0292         estimate D2E/DX2                !
 ! D15   D(3,6,10,13)          163.1355         estimate D2E/DX2                !
 ! D16   D(12,6,10,13)          -8.8446         estimate D2E/DX2                !
 ! D17   D(3,6,12,4)           -14.0198         estimate D2E/DX2                !
 ! D18   D(10,6,12,4)          159.1477         estimate D2E/DX2                !
 --------------------------------------------------------------------------------
 Trust Radius=3.00D-01 FncErr=1.00D-07 GrdErr=1.00D-06
 Number of steps in this run=     58 maximum allowed number of steps=    100.
 GradGradGradGradGradGradGradGradGradGradGradGradGradGradGradGradGradGrad

 Leave Link  103 at Mon Apr 18 09:27:45 2016, MaxMem=   33554432 cpu:       0.0
 (Enter c:\G09w03\l202.exe)
                          Input orientation:                          
 ---------------------------------------------------------------------
 Center     Atomic      Atomic             Coordinates (Angstroms)
 Number     Number       Type             X           Y           Z
 ---------------------------------------------------------------------
      1          7           0       -1.351490   -1.205465    0.090494
      2          1           0       -2.322112   -1.035935    0.326884
      3          6           0       -0.640804    0.034728   -0.125171
      4          1           0        0.382760    0.909424   -1.102895
      5          6           0       -1.288591    1.214975    0.600951
      6          6           0        0.786760   -0.021963   -0.078052
      7          1           0       -1.490121    0.953643    1.650249
      8          1           0       -0.656257    2.103387    0.591221
      9          1           0       -2.241691    1.475551    0.133225
     10          8           0        1.530292   -0.951975    0.481952
     11          1           0       -1.337185   -1.802610   -0.728837
     12          8           0        1.317548    0.911492   -0.808670
     13          1           0        2.441181   -0.898144    0.151126
 ---------------------------------------------------------------------
                    Distance matrix (angstroms):
                    1          2          3          4          5
     1  N    0.000000
     2  H    1.013276   0.000000
     3  C    1.445567   2.043886   0.000000
     4  H    2.984051   3.625608   1.663948   0.000000
     5  C    2.474480   2.491962   1.529661   2.406215   0.000000
     6  C    2.449734   3.295026   1.429466   1.442568   2.509610
     7  H    2.667171   2.530202   2.172064   3.330082   1.099970
     8  H    3.417979   3.563747   2.189248   2.318433   1.090512
     9  H    2.825266   2.520225   2.169235   2.955713   1.093191
    10  O    2.919275   3.856438   2.460861   2.700626   3.557518
    11  H    1.013948   1.634753   2.055522   3.233151   3.297956
    12  O    3.523318   4.281247   2.251894   0.980000   2.978438
    13  H    3.805585   4.768526   3.231907   3.012801   4.310315
                    6          7          8          9         10
     6  C    0.000000
     7  H    3.020433   0.000000
     8  H    2.654682   1.771660   0.000000
     9  H    3.385070   1.771611   1.765656   0.000000
    10  O    1.315814   3.757551   3.758746   4.499150   0.000000
    11  H    2.846993   3.644224   4.178879   3.508222   3.226765
    12  O    1.298798   3.732434   2.697446   3.724716   2.276724
    13  H    1.886087   4.596914   4.335550   5.250147   0.970599
                   11         12         13
    11  H    0.000000
    12  O    3.797411   0.000000
    13  H    3.983521   2.336352   0.000000
 Symmetry turned off by external request.
 Stoichiometry    C3H7NO2
 Framework group  C1[X(C3H7NO2)]
 Deg. of freedom    33
 Full point group                 C1      NOp   1
 Rotational constants (GHZ):      5.0433176      3.0448693      2.2216882
 Leave Link  202 at Mon Apr 18 09:27:45 2016, MaxMem=   33554432 cpu:       0.0
 (Enter c:\G09w03\l301.exe)
 Standard basis: 6-311++G(d,p) (5D, 7F)
 Ernie: Thresh=  0.10000D-02 Tol=  0.10000D-05 Strict=F.
 Integral buffers will be    262144 words long.
 Raffenetti 2 integral format.
 Two-electron integral symmetry is turned off.
   181 basis functions,   279 primitive gaussians,   187 cartesian basis functions
    24 alpha electrons       24 beta electrons
       nuclear repulsion energy       249.6374984437 Hartrees.
 IExCor=  402 DFT=T Ex+Corr=B3LYP ExCW=0 ScaHFX=  0.200000
 ScaDFX=  0.800000  0.720000  1.000000  0.810000 ScalE2=  1.000000  1.000000
 IRadAn=      0 IRanWt=     -1 IRanGd=            0 ICorTp=0
 NAtoms=   13 NActive=   13 NUniq=   13 SFac= 1.00D+00 NAtFMM=   50 NAOKFM=F Big=F
 ------------------------------------------------------------------------------
 Polarizable Continuum Model (PCM)
 =================================
 Model                : C-PCM.
 Atomic radii         : UFF (Universal Force Field).
 Polarization charges : Total charges.
 Charge compensation  : None.
 Solution method      : Matrix inversion.
 Cavity type          : Scaled VdW (van der Waals Surface) (Alpha=1.100).
 Cavity algorithm     : GePol (No added spheres)
                        Default sphere list used, NSphG=   13.
                        Lebedev-Laikov grids with approx.  5.0 points / Ang**2.
                        Smoothing algorithm: Karplus/York (Gamma=1.0000).
                        Polarization charges: spherical gaussians, with
                                              point-specific exponents (IZeta= 3).
                        Self-potential: point-specific (ISelfS= 7).
                        Self-field    : sphere-specific E.n sum rule (ISelfD= 2).
 1st derivatives      : Analytical E(r).r(x)/FMM algorithm (CHGder, D1EAlg=3).
                        Cavity 1st derivative terms included.
 Solvent              : Water, Eps=  78.355300 Eps(inf)=   1.777849
 ------------------------------------------------------------------------------
 Spheres list:
 ISph  on   Nord    Re0     Alpha      Xe            Ye            Ze
    1   N      1    1.830   1.100     -1.351490     -1.205465      0.090494
    2   H      2    1.443   1.100     -2.322112     -1.035935      0.326884
    3   C      3    1.926   1.100     -0.640804      0.034728     -0.125171
    4   H      4    1.443   1.100      0.382760      0.909424     -1.102895
    5   C      5    1.926   1.100     -1.288591      1.214975      0.600951
    6   C      6    1.926   1.100      0.786760     -0.021963     -0.078052
    7   H      7    1.443   1.100     -1.490121      0.953643      1.650249
    8   H      8    1.443   1.100     -0.656257      2.103387      0.591221
    9   H      9    1.443   1.100     -2.241691      1.475551      0.133225
   10   O     10    1.750   1.100      1.530292     -0.951975      0.481952
   11   H     11    1.443   1.100     -1.337185     -1.802610     -0.728837
   12   O     12    1.750   1.100      1.317548      0.911492     -0.808670
   13   H     13    1.443   1.100      2.441181     -0.898144      0.151126
 ------------------------------------------------------------------------------
 GePol: Number of generator spheres                  =      13
 GePol: Total number of spheres                      =      13
 GePol: Number of exposed spheres                    =      13 (100.00%)
 GePol: Number of points                             =    1105
 GePol: Average weight of points                     =       0.14
 GePol: Minimum weight of points                     =   0.20D-08
 GePol: Maximum weight of points                     =    0.20577
 GePol: Number of points with low weight             =      65
 GePol: Fraction of low-weight points (<1% of avg)   =       5.88%
 GePol: Cavity surface area                          =    149.771 Ang**2
 GePol: Cavity volume                                =    136.742 Ang**3
 Leave Link  301 at Mon Apr 18 09:27:45 2016, MaxMem=   33554432 cpu:       0.0
 (Enter c:\G09w03\l302.exe)
 NPDir=0 NMtPBC=     1 NCelOv=     1 NCel=       1 NClECP=     1 NCelD=      1
         NCelK=      1 NCelE2=     1 NClLst=     1 CellRange=     0.0.
 One-electron integrals computed using PRISM.
 NBasis=   181 RedAO= T  NBF=   181
 NBsUse=   181 1.00D-06 NBFU=   181
 Precomputing XC quadrature grid using
 IXCGrd= 2 IRadAn=           0 IRanWt=          -1 IRanGd=           0 AccXCQ= 0.00D+00.
 NRdTot=     842 NPtTot=      107204 NUsed=      111136 NTot=      111152
 NSgBfM=   187   187   187   187   187 NAtAll=    13    13.
 Leave Link  302 at Mon Apr 18 09:27:45 2016, MaxMem=   33554432 cpu:       0.0
 (Enter c:\G09w03\l303.exe)
 DipDrv:  MaxL=1.
 Leave Link  303 at Mon Apr 18 09:27:46 2016, MaxMem=   33554432 cpu:       0.0
 (Enter c:\G09w03\l401.exe)
 Harris functional with IExCor=  402 diagonalized for initial guess.
 ExpMin= 3.60D-02 ExpMax= 8.59D+03 ExpMxC= 1.30D+03 IAcc=3 IRadAn=         0 AccDes= 0.00D+00
 HarFok:  IExCor=  402 AccDes= 0.00D+00 IRadAn=         0 IDoV= 1
 ScaDFX=  1.000000  1.000000  1.000000  1.000000
 FoFCou: FMM=F IPFlag=           0 FMFlag=      100000 FMFlg1=           0
         NFxFlg=           0 DoJE=T BraDBF=F KetDBF=T FulRan=T
         Omega=  0.000000  0.000000  1.000000  0.000000  0.000000 ICntrl=     500 IOpCl=  0
         NMat0=    1 NMatS0=    1 NMatT0=    0 NMatD0=    1 NMtDS0=    0 NMtDT0=    0
         I1Cent=           4 NGrid=           0.
 Symmetry not used in FoFCou.
 Harris En= -323.759633111611    
 Leave Link  401 at Mon Apr 18 09:27:49 2016, MaxMem=   33554432 cpu:       3.0
 (Enter c:\G09w03\l502.exe)
 Closed shell SCF:
 Requested convergence on RMS density matrix=1.00D-08 within 128 cycles.
 Requested convergence on MAX density matrix=1.00D-06.
 Requested convergence on             energy=1.00D-06.
 No special actions if energy rises.
 Using DIIS extrapolation, IDIIS=  1040.
 Two-electron integral symmetry not used.
       111019 words used for storage of precomputed grid.
 IEnd=      236225 IEndB=      236225 NGot=    33554432 MDV=    33370004
 LenX=    33370004 LenY=    33334594
 Fock matrices will be formed incrementally for  20 cycles.

 Cycle   1  Pass 1  IDiag  1:
 FoFCou: FMM=F IPFlag=           0 FMFlag=      100000 FMFlg1=           0
         NFxFlg=           0 DoJE=F BraDBF=F KetDBF=F FulRan=T
         Omega=  0.000000  0.000000  1.000000  0.000000  0.000000 ICntrl=       0 IOpCl=  0
         NMat0=    1 NMatS0=    1 NMatT0=    0 NMatD0=    1 NMtDS0=    0 NMtDT0=    0
         I1Cent=           0 NGrid=           0.
 Symmetry not used in FoFCou.
 E= -323.535151227526    
 DIIS: error= 2.81D-02 at cycle   1 NSaved=   1.
 NSaved= 1 IEnMin= 1 EnMin= -323.535151227526     IErMin= 1 ErrMin= 2.81D-02
 ErrMax= 2.81D-02 EMaxC= 1.00D-01 BMatC= 2.59D-01 BMatP= 2.59D-01
 IDIUse=3 WtCom= 7.19D-01 WtEn= 2.81D-01
 Coeff-Com:  0.100D+01
 Coeff-En:   0.100D+01
 Coeff:      0.100D+01
 Gap=     0.088 Goal=   None    Shift=    0.000
 GapD=    0.088 DampG=0.500 DampE=0.500 DampFc=0.2500 IDamp=-1.
 Damping current iteration by 2.50D-01
 RMSDP=1.33D-02 MaxDP=5.41D-01              OVMax= 3.54D-01

 Cycle   2  Pass 1  IDiag  1:
 RMSU=  2.36D-03    CP:  1.00D+00
 E= -323.611550077237     Delta-E=       -0.076398849711 Rises=F Damp=T
 DIIS: error= 1.16D-02 at cycle   2 NSaved=   2.
 NSaved= 2 IEnMin= 2 EnMin= -323.611550077237     IErMin= 2 ErrMin= 1.16D-02
 ErrMax= 1.16D-02 EMaxC= 1.00D-01 BMatC= 5.10D-02 BMatP= 2.59D-01
 IDIUse=3 WtCom= 8.84D-01 WtEn= 1.16D-01
 Coeff-Com: -0.661D+00 0.166D+01
 Coeff-En:   0.000D+00 0.100D+01
 Coeff:     -0.584D+00 0.158D+01
 Gap=     0.152 Goal=   None    Shift=    0.000
 RMSDP=4.49D-03 MaxDP=3.58D-01 DE=-7.64D-02 OVMax= 2.75D-01

 Cycle   3  Pass 1  IDiag  1:
 RMSU=  2.77D-03    CP:  8.89D-01  7.03D-01
 E= -323.732508881308     Delta-E=       -0.120958804072 Rises=F Damp=F
 DIIS: error= 4.71D-03 at cycle   3 NSaved=   3.
 NSaved= 3 IEnMin= 3 EnMin= -323.732508881308     IErMin= 3 ErrMin= 4.71D-03
 ErrMax= 4.71D-03 EMaxC= 1.00D-01 BMatC= 1.09D-02 BMatP= 5.10D-02
 IDIUse=3 WtCom= 9.53D-01 WtEn= 4.71D-02
 Coeff-Com: -0.341D+00 0.827D+00 0.514D+00
 Coeff-En:   0.000D+00 0.000D+00 0.100D+01
 Coeff:     -0.325D+00 0.788D+00 0.537D+00
 Gap=     0.150 Goal=   None    Shift=    0.000
 RMSDP=9.38D-04 MaxDP=3.93D-02 DE=-1.21D-01 OVMax= 7.64D-02

 Cycle   4  Pass 1  IDiag  1:
 RMSU=  6.52D-04    CP:  8.81D-01  6.73D-01  9.84D-01
 E= -323.740664354227     Delta-E=       -0.008155472919 Rises=F Damp=F
 DIIS: error= 2.94D-03 at cycle   4 NSaved=   4.
 NSaved= 4 IEnMin= 4 EnMin= -323.740664354227     IErMin= 4 ErrMin= 2.94D-03
 ErrMax= 2.94D-03 EMaxC= 1.00D-01 BMatC= 2.34D-03 BMatP= 1.09D-02
 IDIUse=3 WtCom= 9.71D-01 WtEn= 2.94D-02
 Coeff-Com: -0.874D-01 0.186D+00 0.319D+00 0.583D+00
 Coeff-En:   0.000D+00 0.000D+00 0.174D+00 0.826D+00
 Coeff:     -0.848D-01 0.180D+00 0.315D+00 0.590D+00
 Gap=     0.151 Goal=   None    Shift=    0.000
 RMSDP=3.72D-04 MaxDP=1.63D-02 DE=-8.16D-03 OVMax= 2.58D-02

 Cycle   5  Pass 1  IDiag  1:
 RMSU=  1.56D-04    CP:  8.76D-01  6.31D-01  1.03D+00  8.01D-01
 E= -323.742401897081     Delta-E=       -0.001737542854 Rises=F Damp=F
 DIIS: error= 8.48D-04 at cycle   5 NSaved=   5.
 NSaved= 5 IEnMin= 5 EnMin= -323.742401897081     IErMin= 5 ErrMin= 8.48D-04
 ErrMax= 8.48D-04 EMaxC= 1.00D-01 BMatC= 2.11D-04 BMatP= 2.34D-03
 IDIUse=3 WtCom= 9.92D-01 WtEn= 8.48D-03
 Coeff-Com: -0.236D-01 0.440D-01 0.138D+00 0.337D+00 0.504D+00
 Coeff-En:   0.000D+00 0.000D+00 0.000D+00 0.117D-01 0.988D+00
 Coeff:     -0.234D-01 0.436D-01 0.137D+00 0.335D+00 0.508D+00
 Gap=     0.151 Goal=   None    Shift=    0.000
 RMSDP=1.41D-04 MaxDP=3.82D-03 DE=-1.74D-03 OVMax= 4.98D-03

 Cycle   6  Pass 1  IDiag  1:
 RMSU=  6.67D-05    CP:  8.74D-01  6.52D-01  1.04D+00  8.38D-01  8.20D-01
 E= -323.742577643086     Delta-E=       -0.000175746005 Rises=F Damp=F
 DIIS: error= 2.42D-04 at cycle   6 NSaved=   6.
 NSaved= 6 IEnMin= 6 EnMin= -323.742577643086     IErMin= 6 ErrMin= 2.42D-04
 ErrMax= 2.42D-04 EMaxC= 1.00D-01 BMatC= 9.79D-06 BMatP= 2.11D-04
 IDIUse=3 WtCom= 9.98D-01 WtEn= 2.42D-03
 Coeff-Com: -0.114D-02 0.187D-03 0.258D-01 0.798D-01 0.232D+00 0.664D+00
 Coeff-En:   0.000D+00 0.000D+00 0.000D+00 0.000D+00 0.000D+00 0.100D+01
 Coeff:     -0.114D-02 0.187D-03 0.257D-01 0.796D-01 0.231D+00 0.665D+00
 Gap=     0.151 Goal=   None    Shift=    0.000
 RMSDP=2.61D-05 MaxDP=5.22D-04 DE=-1.76D-04 OVMax= 6.59D-04

 Cycle   7  Pass 1  IDiag  1:
 RMSU=  1.49D-05    CP:  8.74D-01  6.51D-01  1.04D+00  8.36D-01  8.37D-01
                    CP:  8.58D-01
 E= -323.742585595760     Delta-E=       -0.000007952674 Rises=F Damp=F
 DIIS: error= 4.11D-05 at cycle   7 NSaved=   7.
 NSaved= 7 IEnMin= 7 EnMin= -323.742585595760     IErMin= 7 ErrMin= 4.11D-05
 ErrMax= 4.11D-05 EMaxC= 1.00D-01 BMatC= 5.72D-07 BMatP= 9.79D-06
 IDIUse=1 WtCom= 1.00D+00 WtEn= 0.00D+00
 Coeff-Com:  0.224D-03-0.111D-02 0.792D-02 0.263D-01 0.990D-01 0.320D+00
 Coeff-Com:  0.548D+00
 Coeff:      0.224D-03-0.111D-02 0.792D-02 0.263D-01 0.990D-01 0.320D+00
 Coeff:      0.548D+00
 Gap=     0.151 Goal=   None    Shift=    0.000
 RMSDP=7.11D-06 MaxDP=2.74D-04 DE=-7.95D-06 OVMax= 2.48D-04

 Cycle   8  Pass 1  IDiag  1:
 RMSU=  4.06D-06    CP:  8.74D-01  6.50D-01  1.04D+00  8.37D-01  8.47D-01
                    CP:  8.51D-01  9.98D-01
 E= -323.742585979831     Delta-E=       -0.000000384071 Rises=F Damp=F
 DIIS: error= 2.50D-05 at cycle   8 NSaved=   8.
 NSaved= 8 IEnMin= 8 EnMin= -323.742585979831     IErMin= 8 ErrMin= 2.50D-05
 ErrMax= 2.50D-05 EMaxC= 1.00D-01 BMatC= 1.11D-07 BMatP= 5.72D-07
 IDIUse=1 WtCom= 1.00D+00 WtEn= 0.00D+00
 Coeff-Com:  0.420D-03-0.712D-03-0.734D-03-0.154D-02 0.111D-01 0.422D-01
 Coeff-Com:  0.312D+00 0.638D+00
 Coeff:      0.420D-03-0.712D-03-0.734D-03-0.154D-02 0.111D-01 0.422D-01
 Coeff:      0.312D+00 0.638D+00
 Gap=     0.151 Goal=   None    Shift=    0.000
 RMSDP=4.00D-06 MaxDP=1.93D-04 DE=-3.84D-07 OVMax= 9.94D-05

 Cycle   9  Pass 1  IDiag  1:
 RMSU=  1.57D-06    CP:  8.74D-01  6.50D-01  1.04D+00  8.37D-01  8.55D-01
                    CP:  8.63D-01  1.05D+00  9.94D-01
 E= -323.742586056349     Delta-E=       -0.000000076517 Rises=F Damp=F
 DIIS: error= 3.87D-06 at cycle   9 NSaved=   9.
 NSaved= 9 IEnMin= 9 EnMin= -323.742586056349     IErMin= 9 ErrMin= 3.87D-06
 ErrMax= 3.87D-06 EMaxC= 1.00D-01 BMatC= 6.79D-09 BMatP= 1.11D-07
 IDIUse=1 WtCom= 1.00D+00 WtEn= 0.00D+00
 Coeff-Com:  0.171D-03-0.266D-03-0.769D-03-0.209D-02 0.189D-04 0.496D-04
 Coeff-Com:  0.112D+00 0.297D+00 0.594D+00
 Coeff:      0.171D-03-0.266D-03-0.769D-03-0.209D-02 0.189D-04 0.496D-04
 Coeff:      0.112D+00 0.297D+00 0.594D+00
 Gap=     0.151 Goal=   None    Shift=    0.000
 RMSDP=1.33D-06 MaxDP=4.21D-05 DE=-7.65D-08 OVMax= 3.29D-05

 Cycle  10  Pass 1  IDiag  1:
 RMSU=  4.86D-07    CP:  8.74D-01  6.50D-01  1.04D+00  8.37D-01  8.54D-01
                    CP:  8.68D-01  1.08D+00  1.00D+00  1.02D+00
 E= -323.742586061760     Delta-E=       -0.000000005412 Rises=F Damp=F
 DIIS: error= 1.44D-06 at cycle  10 NSaved=  10.
 NSaved=10 IEnMin=10 EnMin= -323.742586061760     IErMin=10 ErrMin= 1.44D-06
 ErrMax= 1.44D-06 EMaxC= 1.00D-01 BMatC= 8.83D-10 BMatP= 6.79D-09
 IDIUse=1 WtCom= 1.00D+00 WtEn= 0.00D+00
 Coeff-Com:  0.164D-04-0.127D-04-0.360D-03-0.103D-02-0.165D-02-0.639D-02
 Coeff-Com:  0.185D-01 0.700D-01 0.291D+00 0.630D+00
 Coeff:      0.164D-04-0.127D-04-0.360D-03-0.103D-02-0.165D-02-0.639D-02
 Coeff:      0.185D-01 0.700D-01 0.291D+00 0.630D+00
 Gap=     0.151 Goal=   None    Shift=    0.000
 RMSDP=4.02D-07 MaxDP=1.13D-05 DE=-5.41D-09 OVMax= 1.27D-05

 Cycle  11  Pass 1  IDiag  1:
 RMSU=  1.48D-07    CP:  8.74D-01  6.51D-01  1.04D+00  8.37D-01  8.54D-01
                    CP:  8.69D-01  1.09D+00  1.01D+00  1.08D+00  1.06D+00
 E= -323.742586062566     Delta-E=       -0.000000000805 Rises=F Damp=F
 DIIS: error= 4.20D-07 at cycle  11 NSaved=  11.
 NSaved=11 IEnMin=11 EnMin= -323.742586062566     IErMin=11 ErrMin= 4.20D-07
 ErrMax= 4.20D-07 EMaxC= 1.00D-01 BMatC= 5.36D-11 BMatP= 8.83D-10
 IDIUse=1 WtCom= 1.00D+00 WtEn= 0.00D+00
 Coeff-Com: -0.109D-04 0.173D-04-0.819D-04-0.219D-03-0.614D-03-0.245D-02
 Coeff-Com: -0.285D-02-0.635D-03 0.518D-01 0.237D+00 0.718D+00
 Coeff:     -0.109D-04 0.173D-04-0.819D-04-0.219D-03-0.614D-03-0.245D-02
 Coeff:     -0.285D-02-0.635D-03 0.518D-01 0.237D+00 0.718D+00
 Gap=     0.151 Goal=   None    Shift=    0.000
 RMSDP=2.29D-07 MaxDP=8.28D-06 DE=-8.05D-10 OVMax= 5.28D-06

 Cycle  12  Pass 1  IDiag  1:
 RMSU=  4.62D-08    CP:  8.74D-01  6.51D-01  1.04D+00  8.37D-01  8.54D-01
                    CP:  8.69D-01  1.09D+00  1.02D+00  1.12D+00  1.18D+00
                    CP:  9.80D-01
 E= -323.742586062619     Delta-E=       -0.000000000054 Rises=F Damp=F
 DIIS: error= 1.94D-07 at cycle  12 NSaved=  12.
 NSaved=12 IEnMin=12 EnMin= -323.742586062619     IErMin=12 ErrMin= 1.94D-07
 ErrMax= 1.94D-07 EMaxC= 1.00D-01 BMatC= 1.28D-11 BMatP= 5.36D-11
 IDIUse=1 WtCom= 1.00D+00 WtEn= 0.00D+00
 Coeff-Com: -0.746D-05 0.105D-04-0.111D-04-0.178D-04-0.134D-03-0.570D-03
 Coeff-Com: -0.246D-02-0.540D-02 0.435D-03 0.586D-01 0.393D+00 0.556D+00
 Coeff:     -0.746D-05 0.105D-04-0.111D-04-0.178D-04-0.134D-03-0.570D-03
 Coeff:     -0.246D-02-0.540D-02 0.435D-03 0.586D-01 0.393D+00 0.556D+00
 Gap=     0.151 Goal=   None    Shift=    0.000
 RMSDP=5.15D-08 MaxDP=1.90D-06 DE=-5.37D-11 OVMax= 1.54D-06

 Cycle  13  Pass 1  IDiag  1:
 RMSU=  1.24D-08    CP:  8.74D-01  6.51D-01  1.04D+00  8.37D-01  8.54D-01
                    CP:  8.69D-01  1.09D+00  1.02D+00  1.13D+00  1.20D+00
                    CP:  1.02D+00  9.78D-01
 E= -323.742586062626     Delta-E=       -0.000000000007 Rises=F Damp=F
 DIIS: error= 2.31D-08 at cycle  13 NSaved=  13.
 NSaved=13 IEnMin=13 EnMin= -323.742586062626     IErMin=13 ErrMin= 2.31D-08
 ErrMax= 2.31D-08 EMaxC= 1.00D-01 BMatC= 2.59D-13 BMatP= 1.28D-11
 IDIUse=1 WtCom= 1.00D+00 WtEn= 0.00D+00
 Coeff-Com: -0.553D-06 0.798D-06 0.281D-05 0.131D-04 0.161D-04 0.598D-04
 Coeff-Com: -0.321D-03-0.110D-02-0.489D-02-0.170D-01 0.192D-01 0.945D-01
 Coeff-Com:  0.909D+00
 Coeff:     -0.553D-06 0.798D-06 0.281D-05 0.131D-04 0.161D-04 0.598D-04
 Coeff:     -0.321D-03-0.110D-02-0.489D-02-0.170D-01 0.192D-01 0.945D-01
 Coeff:      0.909D+00
 Gap=     0.151 Goal=   None    Shift=    0.000
 RMSDP=2.52D-08 MaxDP=9.05D-07 DE=-6.59D-12 OVMax= 6.23D-07

 Cycle  14  Pass 1  IDiag  1:
 RMSU=  4.21D-09    CP:  8.74D-01  6.51D-01  1.04D+00  8.37D-01  8.54D-01
                    CP:  8.69D-01  1.10D+00  1.02D+00  1.13D+00  1.21D+00
                    CP:  1.05D+00  1.08D+00  1.14D+00
 E= -323.742586062631     Delta-E=       -0.000000000005 Rises=F Damp=F
 DIIS: error= 5.62D-09 at cycle  14 NSaved=  14.
 NSaved=14 IEnMin=14 EnMin= -323.742586062631     IErMin=14 ErrMin= 5.62D-09
 ErrMax= 5.62D-09 EMaxC= 1.00D-01 BMatC= 1.36D-14 BMatP= 2.59D-13
 IDIUse=1 WtCom= 1.00D+00 WtEn= 0.00D+00
 Coeff-Com:  0.100D-06-0.110D-06 0.219D-06 0.264D-05 0.623D-05 0.246D-04
 Coeff-Com:  0.553D-04 0.108D-03-0.670D-03-0.486D-02-0.664D-02-0.717D-02
 Coeff-Com:  0.128D+00 0.891D+00
 Coeff:      0.100D-06-0.110D-06 0.219D-06 0.264D-05 0.623D-05 0.246D-04
 Coeff:      0.553D-04 0.108D-03-0.670D-03-0.486D-02-0.664D-02-0.717D-02
 Coeff:      0.128D+00 0.891D+00
 Gap=     0.151 Goal=   None    Shift=    0.000
 RMSDP=3.84D-09 MaxDP=1.45D-07 DE=-4.55D-12 OVMax= 9.71D-08

 Error on total polarization charges =  0.01326
 SCF Done:  E(RB3LYP) =  -323.742586063     A.U. after   14 cycles
             Convg  =    0.3845D-08             -V/T =  2.0030
 KE= 3.227799094173D+02 PE=-1.257753739242D+03 EE= 3.615937453187D+02
 Leave Link  502 at Mon Apr 18 09:30:14 2016, MaxMem=   33554432 cpu:     145.0
 (Enter c:\G09w03\l601.exe)
 Copying SCF densities to generalized density rwf, IOpCl= 0 IROHF=0.

 **********************************************************************

            Population analysis using the SCF density.

 **********************************************************************

 Alpha  occ. eigenvalues --  -19.19475 -19.17023 -14.30074 -10.31085 -10.18384
 Alpha  occ. eigenvalues --  -10.17108  -1.16091  -1.08752  -0.88981  -0.74830
 Alpha  occ. eigenvalues --   -0.68809  -0.62378  -0.55744  -0.52581  -0.49185
 Alpha  occ. eigenvalues --   -0.48245  -0.42855  -0.42282  -0.40890  -0.38265
 Alpha  occ. eigenvalues --   -0.37508  -0.36464  -0.29964  -0.17774
 Alpha virt. eigenvalues --   -0.02677  -0.00732   0.00586   0.01871   0.02438
 Alpha virt. eigenvalues --    0.04256   0.05185   0.05664   0.06691   0.07704
 Alpha virt. eigenvalues --    0.08972   0.09791   0.10300   0.10969   0.11677
 Alpha virt. eigenvalues --    0.12026   0.13336   0.13490   0.15154   0.16660
 Alpha virt. eigenvalues --    0.16983   0.17306   0.17467   0.18539   0.19631
 Alpha virt. eigenvalues --    0.19845   0.21559   0.22394   0.24093   0.25218
 Alpha virt. eigenvalues --    0.25561   0.25827   0.27882   0.28191   0.28830
 Alpha virt. eigenvalues --    0.29186   0.30209   0.32358   0.32489   0.34166
 Alpha virt. eigenvalues --    0.35767   0.37470   0.40207   0.42984   0.47692
 Alpha virt. eigenvalues --    0.48246   0.53187   0.54407   0.56484   0.58639
 Alpha virt. eigenvalues --    0.59059   0.60906   0.62841   0.63723   0.65477
 Alpha virt. eigenvalues --    0.67286   0.68268   0.72577   0.73042   0.74449
 Alpha virt. eigenvalues --    0.80535   0.82904   0.84628   0.86291   0.93692
 Alpha virt. eigenvalues --    0.96011   1.04086   1.05441   1.07328   1.09946
 Alpha virt. eigenvalues --    1.12216   1.15174   1.16028   1.20010   1.21027
 Alpha virt. eigenvalues --    1.24787   1.30960   1.38235   1.40247   1.42481
 Alpha virt. eigenvalues --    1.46738   1.50485   1.51270   1.51871   1.53330
 Alpha virt. eigenvalues --    1.54386   1.58360   1.62090   1.64252   1.69864
 Alpha virt. eigenvalues --    1.71826   1.74058   1.76146   1.78328   1.81402
 Alpha virt. eigenvalues --    1.83560   1.87240   1.93454   1.96891   2.00298
 Alpha virt. eigenvalues --    2.03910   2.07825   2.16838   2.17506   2.20668
 Alpha virt. eigenvalues --    2.26745   2.33597   2.41604   2.46752   2.50212
 Alpha virt. eigenvalues --    2.53800   2.54690   2.56783   2.58897   2.61336
 Alpha virt. eigenvalues --    2.64724   2.67862   2.74863   2.77336   2.80093
 Alpha virt. eigenvalues --    2.87847   2.93007   2.95485   2.99342   3.02013
 Alpha virt. eigenvalues --    3.07320   3.10632   3.14447   3.15311   3.21293
 Alpha virt. eigenvalues --    3.24653   3.28447   3.33240   3.47142   3.59158
 Alpha virt. eigenvalues --    3.72487   3.79713   3.80639   3.84457   3.91717
 Alpha virt. eigenvalues --    4.08568   4.11722   4.25189   4.75749   4.84630
 Alpha virt. eigenvalues --    4.97155   5.00080   5.32328   5.45293   5.59279
 Alpha virt. eigenvalues --    5.83892  23.69286  23.88227  23.96954  35.60678
 Alpha virt. eigenvalues --   49.85204  49.93478
          Condensed to atoms (all electrons):
              1          2          3          4          5          6
     1  N    6.759889   0.388110  -0.013467  -0.008102  -0.000048  -0.180375
     2  H    0.388110   0.442543  -0.052642   0.003325   0.004583   0.018008
     3  C   -0.013467  -0.052642   6.863544   0.110952   0.233908  -0.154375
     4  H   -0.008102   0.003325   0.110952   0.456065  -0.005274  -0.028937
     5  C   -0.000048   0.004583   0.233908  -0.005274   5.371812  -0.215042
     6  C   -0.180375   0.018008  -0.154375  -0.028937  -0.215042   5.989827
     7  H   -0.015899   0.019261  -0.042159   0.006282   0.396664  -0.030516
     8  H    0.018048   0.000708  -0.027455  -0.002729   0.409606  -0.058283
     9  H    0.018893  -0.013210  -0.107282  -0.007586   0.399791   0.029774
    10  O    0.019734   0.002887  -0.202264   0.019956  -0.007435   0.333390
    11  H    0.413693  -0.048500  -0.075355  -0.005384  -0.000145  -0.021828
    12  O    0.029552  -0.005653  -0.391531   0.199271  -0.049749   0.360950
    13  H   -0.005110  -0.000435   0.022764  -0.002281   0.006488  -0.030320
              7          8          9         10         11         12
     1  N   -0.015899   0.018048   0.018893   0.019734   0.413693   0.029552
     2  H    0.019261   0.000708  -0.013210   0.002887  -0.048500  -0.005653
     3  C   -0.042159  -0.027455  -0.107282  -0.202264  -0.075355  -0.391531
     4  H    0.006282  -0.002729  -0.007586   0.019956  -0.005384   0.199271
     5  C    0.396664   0.409606   0.399791  -0.007435  -0.000145  -0.049749
     6  C   -0.030516  -0.058283   0.029774   0.333390  -0.021828   0.360950
     7  H    0.676234  -0.024096  -0.102599   0.011573  -0.008294  -0.010172
     8  H   -0.024096   0.547235  -0.027092   0.001506  -0.000502   0.011739
     9  H   -0.102599  -0.027092   0.626027  -0.004942   0.007466   0.011072
    10  O    0.011573   0.001506  -0.004942   7.878371   0.002673  -0.094507
    11  H   -0.008294  -0.000502   0.007466   0.002673   0.451359   0.009849
    12  O   -0.010172   0.011739   0.011072  -0.094507   0.009849   8.102723
    13  H   -0.002631  -0.000468   0.001269   0.255181   0.001467   0.009503
             13
     1  N   -0.005110
     2  H   -0.000435
     3  C    0.022764
     4  H   -0.002281
     5  C    0.006488
     6  C   -0.030320
     7  H   -0.002631
     8  H   -0.000468
     9  H    0.001269
    10  O    0.255181
    11  H    0.001467
    12  O    0.009503
    13  H    0.423925
 Mulliken atomic charges:
              1
     1  N   -0.424918
     2  H    0.241014
     3  C   -0.164638
     4  H    0.264442
     5  C   -0.545158
     6  C   -0.012273
     7  H    0.126353
     8  H    0.151782
     9  H    0.168418
    10  O   -0.216124
    11  H    0.273501
    12  O   -0.183047
    13  H    0.320648
 Sum of Mulliken atomic charges =   0.00000
 Mulliken charges with hydrogens summed into heavy atoms:
              1
     1  N    0.089597
     3  C   -0.164638
     5  C   -0.098605
     6  C   -0.012273
    10  O    0.104524
    12  O    0.081396
 Sum of Mulliken charges with hydrogens summed into heavy atoms =   0.00000
 Electronic spatial extent (au):  <R**2>=            591.4065
 Charge=              0.0000 electrons
 Dipole moment (field-independent basis, Debye):
    X=              0.4666    Y=              0.1691    Z=             -1.1899  Tot=              1.2893
 Quadrupole moment (field-independent basis, Debye-Ang):
   XX=            -28.7116   YY=            -39.2924   ZZ=            -39.0348
   XY=             -2.7985   XZ=              0.8158   YZ=              4.3939
 Traceless Quadrupole moment (field-independent basis, Debye-Ang):
   XX=              6.9680   YY=             -3.6128   ZZ=             -3.3552
   XY=             -2.7985   XZ=              0.8158   YZ=              4.3939
 Octapole moment (field-independent basis, Debye-Ang**2):
  XXX=             16.4075  YYY=             -0.6157  ZZZ=             -6.7036  XYY=              0.3300
  XXY=            -15.0816  XXZ=              0.8847  XZZ=              1.2590  YZZ=             -0.0332
  YYZ=             -8.5734  XYZ=              0.0420
 Hexadecapole moment (field-independent basis, Debye-Ang**3):
 XXXX=           -309.0106 YYYY=           -257.0420 ZZZZ=           -106.0484 XXXY=             -7.9794
 XXXZ=             30.3274 YYYX=              8.4219 YYYZ=             18.0903 ZZZX=             26.9335
 ZZZY=              7.3292 XXYY=           -104.6758 XXZZ=            -90.1009 YYZZ=            -60.6607
 XXYZ=              7.9300 YYXZ=             16.4954 ZZXY=              3.1182
 N-N= 2.496374984437D+02 E-N=-1.257753739739D+03  KE= 3.227799094173D+02
 No NMR shielding tensors so no spin-rotation constants.
 Leave Link  601 at Mon Apr 18 09:30:15 2016, MaxMem=   33554432 cpu:       1.0
 (Enter c:\G09w03\l701.exe)
 Compute integral first derivatives.
 ... and contract with generalized density number  0.
 D1PCM: C-PCM CHGder 1st derivatives, ID1Alg=3 FixD1E=F DoIter=F DoCFld=F I1PDM=0.
 GePol: Maximum number of non-zero 1st derivatives   =     200
 Leave Link  701 at Mon Apr 18 09:30:18 2016, MaxMem=   33554432 cpu:       3.0
 (Enter c:\G09w03\l702.exe)
 L702 exits ... SP integral derivatives will be done elsewhere.
 Leave Link  702 at Mon Apr 18 09:30:18 2016, MaxMem=   33554432 cpu:       0.0
 (Enter c:\G09w03\l703.exe)
 Compute integral first derivatives, UseDBF=F ICtDFT=           0.
 Integral derivatives from FoFDir, PRISM(SPDF).
 Calling FoFJK, ICntrl=      2127 FMM=F ISym2X=0 I1Cent= 0 IOpClX= 0 NMat=1 NMatS=1 NMatT=0.
 FoFCou: FMM=F IPFlag=           0 FMFlag=      100000 FMFlg1=         800
         NFxFlg=           0 DoJE=F BraDBF=F KetDBF=F FulRan=T
         Omega=  0.000000  0.000000  1.000000  0.000000  0.000000 ICntrl=    2127 IOpCl=  0
         NMat0=    1 NMatS0=    1 NMatT0=    0 NMatD0=    1 NMtDS0=    0 NMtDT0=    0
         I1Cent=           0 NGrid=           0.
 Symmetry not used in FoFCou.
 Leave Link  703 at Mon Apr 18 09:30:48 2016, MaxMem=   33554432 cpu:      30.0
 (Enter c:\G09w03\l716.exe)
 Dipole        = 1.83588505D-01 6.65416187D-02-4.68135011D-01
 -------------------------------------------------------------------
 Center     Atomic                   Forces (Hartrees/Bohr)
 Number     Number              X              Y              Z
 -------------------------------------------------------------------
      1        7           0.000480428   -0.002056275    0.004286189
      2        1           0.000341995   -0.000250319    0.000450024
      3        6           0.011559896   -0.020917265    0.026824185
      4        1          -0.018713004    0.045853275   -0.054665614
      5        6          -0.001197245    0.001828794   -0.013012086
      6        6          -0.042282249   -0.040594877    0.039950920
      7        1           0.000778027   -0.001078535   -0.000593853
      8        1           0.000041159    0.000691321    0.000392837
      9        1          -0.001502504    0.001952835    0.000998504
     10        8           0.009335611   -0.005826715   -0.002526162
     11        1          -0.000011411    0.000875387   -0.000099653
     12        8           0.041270700    0.022168049   -0.001077575
     13        1          -0.000101403   -0.002645676   -0.000927717
 -------------------------------------------------------------------
 Cartesian Forces:  Max     0.054665614 RMS     0.019150318
 Leave Link  716 at Mon Apr 18 09:30:48 2016, MaxMem=   33554432 cpu:       0.0
 (Enter c:\G09w03\l103.exe)

 GradGradGradGradGradGradGradGradGradGradGradGradGradGradGradGradGradGrad
 Berny optimization.
 Internal  Forces:  Max     0.063150097 RMS     0.014876370
 Search for a local minimum.
 Step number   1 out of a maximum of   58
 All quantities printed in internal units (Hartrees-Bohrs-Radians)
 RMS Force = .14876D-01 SwitMx=.10000D-02 MixMth= 1
 Mixed Optimization -- RFO/linear search
 Second derivative matrix not updated -- first step.
 ITU=  0
     Eigenvalues ---    0.00374   0.01089   0.01699   0.02169   0.02353
     Eigenvalues ---    0.02805   0.03030   0.05216   0.06883   0.07126
     Eigenvalues ---    0.13786   0.16000   0.16000   0.16000   0.16000
     Eigenvalues ---    0.16000   0.16000   0.20102   0.21523   0.24892
     Eigenvalues ---    0.24947   0.29455   0.33685   0.34446   0.34754
     Eigenvalues ---    0.38832   0.41066   0.45318   0.45428   0.48512
     Eigenvalues ---    0.53255   0.61904   0.62986
 RFO step:  Lambda=-4.52039011D-02 EMin= 3.73583380D-03
 Linear search not attempted -- first point.
 Maximum step size (   0.300) exceeded in Quadratic search.
    -- Step size scaled by   0.719
 Iteration  1 RMS(Cart)=  0.08956781 RMS(Int)=  0.00731594
 Iteration  2 RMS(Cart)=  0.01419022 RMS(Int)=  0.00044786
 Iteration  3 RMS(Cart)=  0.00019651 RMS(Int)=  0.00036555
 Iteration  4 RMS(Cart)=  0.00000009 RMS(Int)=  0.00036555
 Variable       Old X    -DE/DX   Delta X   Delta X   Delta X     New X
                                 (Linear)    (Quad)   (Total)
    R1        1.91481  -0.00026   0.00000  -0.00038  -0.00038   1.91444
    R2        2.73173   0.00152   0.00000   0.00251   0.00251   2.73424
    R3        1.91608  -0.00043   0.00000  -0.00062  -0.00062   1.91546
    R4        2.89064  -0.00238   0.00000  -0.00503  -0.00503   2.88561
    R5        2.70130  -0.01187   0.00000  -0.01871  -0.01871   2.68259
    R6        2.72606   0.06315   0.00000   0.22449   0.22404   2.95009
    R7        1.85193   0.00391   0.00000   0.01030   0.01055   1.86248
    R8        2.07864  -0.00045   0.00000  -0.00084  -0.00084   2.07780
    R9        2.06077   0.00059   0.00000   0.00107   0.00107   2.06184
   R10        2.06583   0.00134   0.00000   0.00248   0.00248   2.06831
   R11        2.48653   0.00974   0.00000   0.01037   0.01037   2.49689
   R12        2.45437   0.04215   0.00000   0.04845   0.04881   2.50318
   R13        1.83417   0.00008   0.00000   0.00009   0.00009   1.83426
    A1        1.94143   0.00055   0.00000   0.00182   0.00182   1.94325
    A2        1.87608   0.00023   0.00000   0.00060   0.00061   1.87668
    A3        1.95818  -0.00112   0.00000  -0.00402  -0.00402   1.95416
    A4        1.96377   0.00219   0.00000   0.01052   0.01045   1.97423
    A5        2.03984  -0.00552   0.00000  -0.01144  -0.01171   2.02813
    A6        2.02403   0.00526   0.00000   0.01943   0.01940   2.04343
    A7        1.92528  -0.00291   0.00000  -0.01135  -0.01134   1.91394
    A8        1.95928   0.00051   0.00000   0.00178   0.00174   1.96102
    A9        1.92840   0.00379   0.00000   0.01446   0.01446   1.94286
   A10        1.88420   0.00031   0.00000  -0.00111  -0.00112   1.88308
   A11        1.88078  -0.00042   0.00000  -0.00142  -0.00138   1.87940
   A12        1.88340  -0.00136   0.00000  -0.00264  -0.00269   1.88071
   A13        2.22230  -0.02076   0.00000  -0.04942  -0.04970   2.17260
   A14        1.94023   0.05000   0.00000   0.12318   0.12299   2.06322
   A15        2.11351  -0.02880   0.00000  -0.06900  -0.06930   2.04420
   A16        1.92415   0.00272   0.00000   0.00953   0.00953   1.93368
   A17        1.34647   0.01827   0.00000   0.11273   0.11345   1.45992
    D1        0.42572  -0.00272   0.00000  -0.02041  -0.02032   0.40541
    D2        2.83178   0.00199   0.00000   0.01048   0.01040   2.84217
    D3        2.52800  -0.00282   0.00000  -0.02113  -0.02105   2.50695
    D4       -1.34914   0.00189   0.00000   0.00976   0.00967  -1.33946
    D5        0.85404   0.00040   0.00000   0.01171   0.01181   0.86585
    D6        2.95617  -0.00088   0.00000   0.00364   0.00375   2.95993
    D7       -1.22373   0.00037   0.00000   0.01153   0.01169  -1.21204
    D8       -1.55907   0.00054   0.00000  -0.00513  -0.00527  -1.56435
    D9        0.54306  -0.00074   0.00000  -0.01320  -0.01333   0.52973
   D10        2.64635   0.00051   0.00000  -0.00531  -0.00540   2.64095
   D11       -0.35049   0.00562   0.00000   0.06655   0.06608  -0.28441
   D12        2.66263   0.00831   0.00000   0.10592   0.10649   2.76913
   D13        2.03037   0.00900   0.00000   0.09418   0.09361   2.12397
   D14       -1.23969   0.01169   0.00000   0.13355   0.13402  -1.10567
   D15        2.84725   0.00200   0.00000   0.00758   0.00622   2.85347
   D16       -0.15437  -0.00611   0.00000  -0.04794  -0.04658  -0.20094
   D17       -0.24469  -0.00424   0.00000  -0.04613  -0.04649  -0.29118
   D18        2.77765  -0.00156   0.00000  -0.00914  -0.00878   2.76887
         Item               Value     Threshold  Converged?
 Maximum Force            0.063150     0.000450     NO 
 RMS     Force            0.014876     0.000300     NO 
 Maximum Displacement     0.380615     0.001800     NO 
 RMS     Displacement     0.102007     0.001200     NO 
 Predicted change in Energy=-2.391721D-02
 GradGradGradGradGradGradGradGradGradGradGradGradGradGradGradGradGradGrad

 Leave Link  103 at Mon Apr 18 09:30:48 2016, MaxMem=   33554432 cpu:       0.0
 (Enter c:\G09w03\l202.exe)
                          Input orientation:                          
 ---------------------------------------------------------------------
 Center     Atomic      Atomic             Coordinates (Angstroms)
 Number     Number       Type             X           Y           Z
 ---------------------------------------------------------------------
      1          7           0       -1.339559   -1.229033    0.141684
      2          1           0       -2.309124   -1.078526    0.393906
      3          6           0       -0.659816    0.023676   -0.107675
      4          1           0        0.549778    1.110837   -1.152355
      5          6           0       -1.323974    1.213595    0.581319
      6          6           0        0.759033   -0.020044   -0.096692
      7          1           0       -1.502034    0.975945    1.639984
      8          1           0       -0.709247    2.114009    0.538689
      9          1           0       -2.291277    1.447951    0.125976
     10          8           0        1.473052   -1.007795    0.413561
     11          1           0       -1.325995   -1.835888   -0.670081
     12          8           0        1.420088    0.942991   -0.721356
     13          1           0        2.389361   -0.970617    0.095516
 ---------------------------------------------------------------------
                    Distance matrix (angstroms):
                    1          2          3          4          5
     1  N    0.000000
     2  H    1.013076   0.000000
     3  C    1.446897   2.046130   0.000000
     4  H    3.274008   3.918872   1.932975   0.000000
     5  C    2.481925   2.501892   1.527000   2.554825   0.000000
     6  C    2.433632   3.282477   1.419564   1.561123   2.514057
     7  H    2.670810   2.534750   2.161125   3.467750   1.099525
     8  H    3.425031   3.573913   2.188544   2.334765   1.091079
     9  H    2.841172   2.540708   2.178261   3.133588   1.094502
    10  O    2.834368   3.782888   2.425849   2.791617   3.575761
    11  H    1.013617   1.634688   2.053794   3.526231   3.296263
    12  O    3.616377   4.386042   2.355365   0.985582   3.049601
    13  H    3.738149   4.709187   3.213625   3.045275   4.335395
                    6          7          8          9         10
     6  C    0.000000
     7  H    3.020010   0.000000
     8  H    2.667159   1.771032   0.000000
     9  H    3.392489   1.771416   1.765442   0.000000
    10  O    1.321300   3.780274   3.811003   4.503728   0.000000
    11  H    2.823722   3.643322   4.176505   3.514125   3.113629
    12  O    1.324627   3.757101   2.737346   3.840207   2.257522
    13  H    1.896973   4.617082   4.394621   5.268660   0.970648
                   11         12         13
    11  H    0.000000
    12  O    3.907144   0.000000
    13  H    3.890849   2.295358   0.000000
 Symmetry turned off by external request.
 Stoichiometry    C3H7NO2
 Framework group  C1[X(C3H7NO2)]
 Deg. of freedom    33
 Full point group                 C1      NOp   1
 Rotational constants (GHZ):      5.0396636      3.0595814      2.1538872
 Leave Link  202 at Mon Apr 18 09:30:48 2016, MaxMem=   33554432 cpu:       0.0
 (Enter c:\G09w03\l301.exe)
 Standard basis: 6-311++G(d,p) (5D, 7F)
 Ernie: Thresh=  0.10000D-02 Tol=  0.10000D-05 Strict=F.
 Integral buffers will be    262144 words long.
 Raffenetti 2 integral format.
 Two-electron integral symmetry is turned off.
   181 basis functions,   279 primitive gaussians,   187 cartesian basis functions
    24 alpha electrons       24 beta electrons
       nuclear repulsion energy       248.1452200390 Hartrees.
 IExCor=  402 DFT=T Ex+Corr=B3LYP ExCW=0 ScaHFX=  0.200000
 ScaDFX=  0.800000  0.720000  1.000000  0.810000 ScalE2=  1.000000  1.000000
 IRadAn=      0 IRanWt=     -1 IRanGd=            0 ICorTp=0
 NAtoms=   13 NActive=   13 NUniq=   13 SFac= 1.00D+00 NAtFMM=   50 NAOKFM=F Big=F
 ------------------------------------------------------------------------------
 Polarizable Continuum Model (PCM)
 =================================
 Model                : C-PCM.
 Atomic radii         : UFF (Universal Force Field).
 Polarization charges : Total charges.
 Charge compensation  : None.
 Solution method      : Matrix inversion.
 Cavity type          : Scaled VdW (van der Waals Surface) (Alpha=1.100).
 Cavity algorithm     : GePol (No added spheres)
                        Default sphere list used, NSphG=   13.
                        Lebedev-Laikov grids with approx.  5.0 points / Ang**2.
                        Smoothing algorithm: Karplus/York (Gamma=1.0000).
                        Polarization charges: spherical gaussians, with
                                              point-specific exponents (IZeta= 3).
                        Self-potential: point-specific (ISelfS= 7).
                        Self-field    : sphere-specific E.n sum rule (ISelfD= 2).
 1st derivatives      : Analytical E(r).r(x)/FMM algorithm (CHGder, D1EAlg=3).
                        Cavity 1st derivative terms included.
 Solvent              : Water, Eps=  78.355300 Eps(inf)=   1.777849
 ------------------------------------------------------------------------------
 Spheres list:
 ISph  on   Nord    Re0     Alpha      Xe            Ye            Ze
    1   N      1    1.830   1.100     -1.339559     -1.229033      0.141684
    2   H      2    1.443   1.100     -2.309124     -1.078526      0.393906
    3   C      3    1.926   1.100     -0.659816      0.023676     -0.107675
    4   H      4    1.443   1.100      0.549778      1.110837     -1.152355
    5   C      5    1.926   1.100     -1.323974      1.213595      0.581319
    6   C      6    1.926   1.100      0.759033     -0.020044     -0.096692
    7   H      7    1.443   1.100     -1.502034      0.975945      1.639984
    8   H      8    1.443   1.100     -0.709247      2.114009      0.538689
    9   H      9    1.443   1.100     -2.291277      1.447951      0.125976
   10   O     10    1.750   1.100      1.473052     -1.007795      0.413561
   11   H     11    1.443   1.100     -1.325995     -1.835888     -0.670081
   12   O     12    1.750   1.100      1.420088      0.942991     -0.721356
   13   H     13    1.443   1.100      2.389361     -0.970617      0.095516
 ------------------------------------------------------------------------------
 GePol: Number of generator spheres                  =      13
 GePol: Total number of spheres                      =      13
 GePol: Number of exposed spheres                    =      13 (100.00%)
 GePol: Number of points                             =    1109
 GePol: Average weight of points                     =       0.14
 GePol: Minimum weight of points                     =   0.13D-08
 GePol: Maximum weight of points                     =    0.20577
 GePol: Number of points with low weight             =      62
 GePol: Fraction of low-weight points (<1% of avg)   =       5.59%
 GePol: Cavity surface area                          =    150.506 Ang**2
 GePol: Cavity volume                                =    137.675 Ang**3
 Leave Link  301 at Mon Apr 18 09:30:48 2016, MaxMem=   33554432 cpu:       0.0
 (Enter c:\G09w03\l302.exe)
 NPDir=0 NMtPBC=     1 NCelOv=     1 NCel=       1 NClECP=     1 NCelD=      1
         NCelK=      1 NCelE2=     1 NClLst=     1 CellRange=     0.0.
 One-electron integrals computed using PRISM.
 NBasis=   181 RedAO= T  NBF=   181
 NBsUse=   181 1.00D-06 NBFU=   181
 Precomputing XC quadrature grid using
 IXCGrd= 2 IRadAn=           0 IRanWt=          -1 IRanGd=           0 AccXCQ= 0.00D+00.
 NRdTot=     842 NPtTot=      107350 NUsed=      111282 NTot=      111298
 NSgBfM=   187   187   187   187   187 NAtAll=    13    13.
 Leave Link  302 at Mon Apr 18 09:30:48 2016, MaxMem=   33554432 cpu:       0.0
 (Enter c:\G09w03\l303.exe)
 DipDrv:  MaxL=1.
 Leave Link  303 at Mon Apr 18 09:30:48 2016, MaxMem=   33554432 cpu:       0.0
 (Enter c:\G09w03\l401.exe)
 Initial guess read from the read-write file.
 B after Tr=     0.000000    0.000000    0.000000
         Rot=    1.000000    0.000000    0.000000    0.000000 Ang=   0.00 deg.
 Guess basis will be translated and rotated to current coordinates.
 Generating alternative initial guess.
 Harris functional with IExCor=  402 diagonalized for initial guess.
 ExpMin= 3.60D-02 ExpMax= 8.59D+03 ExpMxC= 1.30D+03 IAcc=3 IRadAn=         0 AccDes= 0.00D+00
 HarFok:  IExCor=  402 AccDes= 0.00D+00 IRadAn=         0 IDoV= 1
 ScaDFX=  1.000000  1.000000  1.000000  1.000000
 FoFCou: FMM=F IPFlag=           0 FMFlag=      100000 FMFlg1=           0
         NFxFlg=           0 DoJE=T BraDBF=F KetDBF=T FulRan=T
         Omega=  0.000000  0.000000  1.000000  0.000000  0.000000 ICntrl=     500 IOpCl=  0
         NMat0=    1 NMatS0=    1 NMatT0=    0 NMatD0=    1 NMtDS0=    0 NMtDT0=    0
         I1Cent=           4 NGrid=           0.
 Symmetry not used in FoFCou.
 Harris En= -323.785575382629    
 Leave Link  401 at Mon Apr 18 09:30:53 2016, MaxMem=   33554432 cpu:       5.0
 (Enter c:\G09w03\l502.exe)
 Closed shell SCF:
 Requested convergence on RMS density matrix=1.00D-08 within 128 cycles.
 Requested convergence on MAX density matrix=1.00D-06.
 Requested convergence on             energy=1.00D-06.
 No special actions if energy rises.
 Using DIIS extrapolation, IDIIS=  1040.
 Two-electron integral symmetry not used.
       111165 words used for storage of precomputed grid.
 IEnd=      236371 IEndB=      236371 NGot=    33554432 MDV=    33369858
 LenX=    33369858 LenY=    33334448
 Fock matrices will be formed incrementally for  20 cycles.

 Cycle   1  Pass 1  IDiag  1:
 FoFCou: FMM=F IPFlag=           0 FMFlag=      100000 FMFlg1=           0
         NFxFlg=           0 DoJE=F BraDBF=F KetDBF=F FulRan=T
         Omega=  0.000000  0.000000  1.000000  0.000000  0.000000 ICntrl=       0 IOpCl=  0
         NMat0=    1 NMatS0=    1 NMatT0=    0 NMatD0=    1 NMtDS0=    0 NMtDT0=    0
         I1Cent=           0 NGrid=           0.
 Symmetry not used in FoFCou.
 E= -323.749140801502    
 DIIS: error= 4.63D-03 at cycle   1 NSaved=   1.
 NSaved= 1 IEnMin= 1 EnMin= -323.749140801502     IErMin= 1 ErrMin= 4.63D-03
 ErrMax= 4.63D-03 EMaxC= 1.00D-01 BMatC= 1.43D-02 BMatP= 1.43D-02
 IDIUse=3 WtCom= 9.54D-01 WtEn= 4.63D-02
 Coeff-Com:  0.100D+01
 Coeff-En:   0.100D+01
 Coeff:      0.100D+01
 Gap=     0.170 Goal=   None    Shift=    0.000
 GapD=    0.170 DampG=1.000 DampE=1.000 DampFc=1.0000 IDamp=-1.
 RMSDP=2.33D-03 MaxDP=9.22D-02              OVMax= 6.51D-02

 Cycle   2  Pass 1  IDiag  1:
 RMSU=  1.64D-03    CP:  1.00D+00
 E= -323.768397631774     Delta-E=       -0.019256830272 Rises=F Damp=F
 DIIS: error= 1.89D-03 at cycle   2 NSaved=   2.
 NSaved= 2 IEnMin= 2 EnMin= -323.768397631774     IErMin= 2 ErrMin= 1.89D-03
 ErrMax= 1.89D-03 EMaxC= 1.00D-01 BMatC= 9.51D-04 BMatP= 1.43D-02
 IDIUse=3 WtCom= 9.81D-01 WtEn= 1.89D-02
 Coeff-Com:  0.213D-01 0.979D+00
 Coeff-En:   0.000D+00 0.100D+01
 Coeff:      0.209D-01 0.979D+00
 Gap=     0.159 Goal=   None    Shift=    0.000
 RMSDP=6.34D-04 MaxDP=1.32D-02 DE=-1.93D-02 OVMax= 3.36D-02

 Cycle   3  Pass 1  IDiag  1:
 RMSU=  4.35D-04    CP:  1.00D+00  1.06D+00
 E= -323.766839040891     Delta-E=        0.001558590882 Rises=F Damp=F
 DIIS: error= 3.30D-03 at cycle   3 NSaved=   3.
 NSaved= 3 IEnMin= 2 EnMin= -323.768397631774     IErMin= 2 ErrMin= 1.89D-03
 ErrMax= 3.30D-03 EMaxC= 1.00D-01 BMatC= 2.80D-03 BMatP= 9.51D-04
 IDIUse=3 WtCom= 1.48D-01 WtEn= 8.52D-01
 Coeff-Com: -0.373D-01 0.663D+00 0.374D+00
 Coeff-En:   0.000D+00 0.708D+00 0.292D+00
 Coeff:     -0.553D-02 0.701D+00 0.304D+00
 Gap=     0.156 Goal=   None    Shift=    0.000
 RMSDP=2.87D-04 MaxDP=6.82D-03 DE= 1.56D-03 OVMax= 2.28D-02

 Cycle   4  Pass 1  IDiag  1:
 RMSU=  8.57D-05    CP:  1.00D+00  1.06D+00  5.78D-01
 E= -323.769266768386     Delta-E=       -0.002427727494 Rises=F Damp=F
 DIIS: error= 3.48D-04 at cycle   4 NSaved=   4.
 NSaved= 4 IEnMin= 4 EnMin= -323.769266768386     IErMin= 4 ErrMin= 3.48D-04
 ErrMax= 3.48D-04 EMaxC= 1.00D-01 BMatC= 4.17D-05 BMatP= 9.51D-04
 IDIUse=3 WtCom= 9.97D-01 WtEn= 3.48D-03
 Coeff-Com: -0.139D-01 0.186D+00 0.139D-01 0.814D+00
 Coeff-En:   0.000D+00 0.000D+00 0.000D+00 0.100D+01
 Coeff:     -0.138D-01 0.185D+00 0.138D-01 0.815D+00
 Gap=     0.156 Goal=   None    Shift=    0.000
 RMSDP=7.98D-05 MaxDP=1.72D-03 DE=-2.43D-03 OVMax= 3.32D-03

 Cycle   5  Pass 1  IDiag  1:
 RMSU=  4.39D-05    CP:  1.00D+00  1.07D+00  5.27D-01  1.27D+00
 E= -323.769302595160     Delta-E=       -0.000035826774 Rises=F Damp=F
 DIIS: error= 1.21D-04 at cycle   5 NSaved=   5.
 NSaved= 5 IEnMin= 5 EnMin= -323.769302595160     IErMin= 5 ErrMin= 1.21D-04
 ErrMax= 1.21D-04 EMaxC= 1.00D-01 BMatC= 4.68D-06 BMatP= 4.17D-05
 IDIUse=3 WtCom= 9.99D-01 WtEn= 1.21D-03
 Coeff-Com: -0.382D-02 0.420D-01-0.206D-01 0.440D+00 0.542D+00
 Coeff-En:   0.000D+00 0.000D+00 0.000D+00 0.000D+00 0.100D+01
 Coeff:     -0.382D-02 0.419D-01-0.205D-01 0.440D+00 0.542D+00
 Gap=     0.155 Goal=   None    Shift=    0.000
 RMSDP=1.86D-05 MaxDP=5.19D-04 DE=-3.58D-05 OVMax= 1.17D-03

 Cycle   6  Pass 1  IDiag  1:
 RMSU=  1.00D-05    CP:  1.00D+00  1.07D+00  5.30D-01  1.33D+00  1.08D+00
 E= -323.769305935618     Delta-E=       -0.000003340459 Rises=F Damp=F
 DIIS: error= 3.43D-05 at cycle   6 NSaved=   6.
 NSaved= 6 IEnMin= 6 EnMin= -323.769305935618     IErMin= 6 ErrMin= 3.43D-05
 ErrMax= 3.43D-05 EMaxC= 1.00D-01 BMatC= 5.91D-07 BMatP= 4.68D-06
 IDIUse=1 WtCom= 1.00D+00 WtEn= 0.00D+00
 Coeff-Com:  0.501D-03-0.147D-01-0.931D-02 0.651D-01 0.283D+00 0.675D+00
 Coeff:      0.501D-03-0.147D-01-0.931D-02 0.651D-01 0.283D+00 0.675D+00
 Gap=     0.156 Goal=   None    Shift=    0.000
 RMSDP=1.37D-05 MaxDP=4.61D-04 DE=-3.34D-06 OVMax= 2.96D-04

 Cycle   7  Pass 1  IDiag  1:
 RMSU=  4.38D-06    CP:  1.00D+00  1.07D+00  5.41D-01  1.38D+00  1.19D+00
                    CP:  1.01D+00
 E= -323.769306445396     Delta-E=       -0.000000509777 Rises=F Damp=F
 DIIS: error= 1.49D-05 at cycle   7 NSaved=   7.
 NSaved= 7 IEnMin= 7 EnMin= -323.769306445396     IErMin= 7 ErrMin= 1.49D-05
 ErrMax= 1.49D-05 EMaxC= 1.00D-01 BMatC= 6.31D-08 BMatP= 5.91D-07
 IDIUse=1 WtCom= 1.00D+00 WtEn= 0.00D+00
 Coeff-Com:  0.582D-03-0.117D-01-0.269D-02 0.104D-02 0.120D+00 0.348D+00
 Coeff-Com:  0.544D+00
 Coeff:      0.582D-03-0.117D-01-0.269D-02 0.104D-02 0.120D+00 0.348D+00
 Coeff:      0.544D+00
 Gap=     0.156 Goal=   None    Shift=    0.000
 RMSDP=3.87D-06 MaxDP=1.11D-04 DE=-5.10D-07 OVMax= 1.18D-04

 Cycle   8  Pass 1  IDiag  1:
 RMSU=  1.29D-06    CP:  1.00D+00  1.07D+00  5.43D-01  1.40D+00  1.23D+00
                    CP:  1.05D+00  1.05D+00
 E= -323.769306492383     Delta-E=       -0.000000046987 Rises=F Damp=F
 DIIS: error= 4.21D-06 at cycle   8 NSaved=   8.
 NSaved= 8 IEnMin= 8 EnMin= -323.769306492383     IErMin= 8 ErrMin= 4.21D-06
 ErrMax= 4.21D-06 EMaxC= 1.00D-01 BMatC= 7.82D-09 BMatP= 6.31D-08
 IDIUse=1 WtCom= 1.00D+00 WtEn= 0.00D+00
 Coeff-Com:  0.193D-03-0.305D-02 0.118D-02-0.136D-01 0.871D-02 0.282D-01
 Coeff-Com:  0.236D+00 0.742D+00
 Coeff:      0.193D-03-0.305D-02 0.118D-02-0.136D-01 0.871D-02 0.282D-01
 Coeff:      0.236D+00 0.742D+00
 Gap=     0.156 Goal=   None    Shift=    0.000
 RMSDP=2.24D-06 MaxDP=7.96D-05 DE=-4.70D-08 OVMax= 4.52D-05

 Cycle   9  Pass 1  IDiag  1:
 RMSU=  4.28D-07    CP:  1.00D+00  1.08D+00  5.44D-01  1.40D+00  1.25D+00
                    CP:  1.08D+00  1.14D+00  1.00D+00
 E= -323.769306499981     Delta-E=       -0.000000007598 Rises=F Damp=F
 DIIS: error= 1.59D-06 at cycle   9 NSaved=   9.
 NSaved= 9 IEnMin= 9 EnMin= -323.769306499981     IErMin= 9 ErrMin= 1.59D-06
 ErrMax= 1.59D-06 EMaxC= 1.00D-01 BMatC= 5.63D-10 BMatP= 7.82D-09
 IDIUse=1 WtCom= 1.00D+00 WtEn= 0.00D+00
 Coeff-Com:  0.388D-04-0.311D-03 0.835D-03-0.541D-02-0.370D-02-0.151D-01
 Coeff-Com:  0.673D-01 0.345D+00 0.612D+00
 Coeff:      0.388D-04-0.311D-03 0.835D-03-0.541D-02-0.370D-02-0.151D-01
 Coeff:      0.673D-01 0.345D+00 0.612D+00
 Gap=     0.156 Goal=   None    Shift=    0.000
 RMSDP=6.44D-07 MaxDP=2.47D-05 DE=-7.60D-09 OVMax= 1.45D-05

 Cycle  10  Pass 1  IDiag  1:
 RMSU=  1.58D-07    CP:  1.00D+00  1.08D+00  5.44D-01  1.41D+00  1.26D+00
                    CP:  1.09D+00  1.19D+00  1.03D+00  9.48D-01
 E= -323.769306500487     Delta-E=       -0.000000000506 Rises=F Damp=F
 DIIS: error= 4.93D-07 at cycle  10 NSaved=  10.
 NSaved=10 IEnMin=10 EnMin= -323.769306500487     IErMin=10 ErrMin= 4.93D-07
 ErrMax= 4.93D-07 EMaxC= 1.00D-01 BMatC= 5.86D-11 BMatP= 5.63D-10
 IDIUse=1 WtCom= 1.00D+00 WtEn= 0.00D+00
 Coeff-Com: -0.874D-05 0.294D-03 0.263D-03-0.983D-03-0.364D-02-0.126D-01
 Coeff-Com: -0.131D-02 0.528D-01 0.282D+00 0.683D+00
 Coeff:     -0.874D-05 0.294D-03 0.263D-03-0.983D-03-0.364D-02-0.126D-01
 Coeff:     -0.131D-02 0.528D-01 0.282D+00 0.683D+00
 Gap=     0.156 Goal=   None    Shift=    0.000
 RMSDP=1.88D-07 MaxDP=6.57D-06 DE=-5.06D-10 OVMax= 3.71D-06

 Cycle  11  Pass 1  IDiag  1:
 RMSU=  3.59D-08    CP:  1.00D+00  1.08D+00  5.44D-01  1.41D+00  1.26D+00
                    CP:  1.09D+00  1.20D+00  1.04D+00  1.04D+00  8.96D-01
 E= -323.769306500547     Delta-E=       -0.000000000060 Rises=F Damp=F
 DIIS: error= 6.15D-08 at cycle  11 NSaved=  11.
 NSaved=11 IEnMin=11 EnMin= -323.769306500547     IErMin=11 ErrMin= 6.15D-08
 ErrMax= 6.15D-08 EMaxC= 1.00D-01 BMatC= 1.01D-12 BMatP= 5.86D-11
 IDIUse=1 WtCom= 1.00D+00 WtEn= 0.00D+00
 Coeff-Com: -0.368D-05 0.901D-04 0.410D-04-0.126D-03-0.984D-03-0.317D-02
 Coeff-Com: -0.235D-02 0.393D-02 0.585D-01 0.188D+00 0.756D+00
 Coeff:     -0.368D-05 0.901D-04 0.410D-04-0.126D-03-0.984D-03-0.317D-02
 Coeff:     -0.235D-02 0.393D-02 0.585D-01 0.188D+00 0.756D+00
 Gap=     0.156 Goal=   None    Shift=    0.000
 RMSDP=3.00D-08 MaxDP=1.52D-06 DE=-6.03D-11 OVMax= 6.06D-07

 Cycle  12  Pass 1  IDiag  1:
 RMSU=  6.58D-09    CP:  1.00D+00  1.08D+00  5.44D-01  1.41D+00  1.26D+00
                    CP:  1.09D+00  1.20D+00  1.04D+00  1.06D+00  9.13D-01
                    CP:  1.12D+00
 E= -323.769306500544     Delta-E=        0.000000000003 Rises=F Damp=F
 DIIS: error= 2.77D-08 at cycle  12 NSaved=  12.
 NSaved=12 IEnMin=11 EnMin= -323.769306500547     IErMin=12 ErrMin= 2.77D-08
 ErrMax= 2.77D-08 EMaxC= 1.00D-01 BMatC= 3.37D-13 BMatP= 1.01D-12
 IDIUse=1 WtCom= 1.00D+00 WtEn= 0.00D+00
 Coeff-Com: -0.828D-06 0.141D-04-0.509D-05 0.368D-04-0.751D-04-0.249D-03
 Coeff-Com: -0.628D-03-0.189D-02 0.440D-02 0.306D-01 0.402D+00 0.566D+00
 Coeff:     -0.828D-06 0.141D-04-0.509D-05 0.368D-04-0.751D-04-0.249D-03
 Coeff:     -0.628D-03-0.189D-02 0.440D-02 0.306D-01 0.402D+00 0.566D+00
 Gap=     0.156 Goal=   None    Shift=    0.000
 RMSDP=9.44D-09 MaxDP=6.46D-07 DE= 3.07D-12 OVMax= 2.72D-07

 Error on total polarization charges =  0.01320
 SCF Done:  E(RB3LYP) =  -323.769306501     A.U. after   12 cycles
             Convg  =    0.9444D-08             -V/T =  2.0036
 KE= 3.226227663523D+02 PE=-1.254853640983D+03 EE= 3.603163480915D+02
 Leave Link  502 at Mon Apr 18 09:32:58 2016, MaxMem=   33554432 cpu:     125.0
 (Enter c:\G09w03\l701.exe)
 Compute integral first derivatives.
 ... and contract with generalized density number  0.
 D1PCM: C-PCM CHGder 1st derivatives, ID1Alg=3 FixD1E=F DoIter=F DoCFld=F I1PDM=0.
 GePol: Maximum number of non-zero 1st derivatives   =     198
 Leave Link  701 at Mon Apr 18 09:33:02 2016, MaxMem=   33554432 cpu:       4.0
 (Enter c:\G09w03\l702.exe)
 L702 exits ... SP integral derivatives will be done elsewhere.
 Leave Link  702 at Mon Apr 18 09:33:02 2016, MaxMem=   33554432 cpu:       0.0
 (Enter c:\G09w03\l703.exe)
 Compute integral first derivatives, UseDBF=F ICtDFT=           0.
 Integral derivatives from FoFDir, PRISM(SPDF).
 Calling FoFJK, ICntrl=      2127 FMM=F ISym2X=0 I1Cent= 0 IOpClX= 0 NMat=1 NMatS=1 NMatT=0.
 FoFCou: FMM=F IPFlag=           0 FMFlag=      100000 FMFlg1=         800
         NFxFlg=           0 DoJE=F BraDBF=F KetDBF=F FulRan=T
         Omega=  0.000000  0.000000  1.000000  0.000000  0.000000 ICntrl=    2127 IOpCl=  0
         NMat0=    1 NMatS0=    1 NMatT0=    0 NMatD0=    1 NMtDS0=    0 NMtDT0=    0
         I1Cent=           0 NGrid=           0.
 Symmetry not used in FoFCou.
 Leave Link  703 at Mon Apr 18 09:33:33 2016, MaxMem=   33554432 cpu:      31.0
 (Enter c:\G09w03\l716.exe)
 Dipole        =-6.45329957D-03 2.35579291D-01-6.32019554D-01
 -------------------------------------------------------------------
 Center     Atomic                   Forces (Hartrees/Bohr)
 Number     Number              X              Y              Z
 -------------------------------------------------------------------
      1        7           0.001661348    0.000783139    0.002334532
      2        1           0.000234528    0.000483660   -0.000049781
      3        6           0.028921745   -0.012050186    0.022668918
      4        1           0.016512335    0.035430369   -0.026677940
      5        6          -0.002180047    0.001837193   -0.015973276
      6        6          -0.046411402   -0.028958919    0.025719045
      7        1           0.000721613   -0.000956329   -0.000732850
      8        1           0.000110531    0.000404032    0.000477089
      9        1          -0.000963473    0.001647533    0.000945005
     10        8           0.011265648   -0.012201969   -0.001165913
     11        1           0.000083590    0.000135330   -0.000043921
     12        8          -0.007942608    0.015095948   -0.005725897
     13        1          -0.002013808   -0.001649801   -0.001775012
 -------------------------------------------------------------------
 Cartesian Forces:  Max     0.046411402 RMS     0.014570357
 Leave Link  716 at Mon Apr 18 09:33:33 2016, MaxMem=   33554432 cpu:       0.0
 (Enter c:\G09w03\l103.exe)

 GradGradGradGradGradGradGradGradGradGradGradGradGradGradGradGradGradGrad
 Berny optimization.
 Using GEDIIS/GDIIS optimizer.
 Internal  Forces:  Max     0.042093755 RMS     0.010445351
 Search for a local minimum.
 Step number   2 out of a maximum of   58
 All quantities printed in internal units (Hartrees-Bohrs-Radians)
 RMS Force = .10445D-01 SwitMx=.10000D-02 MixMth= 1
 Mixed Optimization -- RFO/linear search
 Update second derivatives using D2CorX and points    1    2
 DE= -2.67D-02 DEPred=-2.39D-02 R= 1.12D+00
 SS=  1.41D+00  RLast= 3.71D-01 DXNew= 5.0454D-01 1.1144D+00
 Trust test= 1.12D+00 RLast= 3.71D-01 DXMaxT set to 5.05D-01
 ITU=  1  0
 Use linear search instead of GDIIS.
 Linear search step of   0.600 exceeds DXMaxT=   0.505 but not scaled.
 Quartic linear search produced a step of  2.00000.
 Iteration  1 RMS(Cart)=  0.14463435 RMS(Int)=  0.03621567
 Iteration  2 RMS(Cart)=  0.06642671 RMS(Int)=  0.00578849
 Iteration  3 RMS(Cart)=  0.00669663 RMS(Int)=  0.00252053
 Iteration  4 RMS(Cart)=  0.00005144 RMS(Int)=  0.00251987
 Iteration  5 RMS(Cart)=  0.00000016 RMS(Int)=  0.00251987
 Variable       Old X    -DE/DX   Delta X   Delta X   Delta X     New X
                                 (Linear)    (Quad)   (Total)
    R1        1.91444  -0.00016  -0.00076   0.00000  -0.00076   1.91368
    R2        2.73424  -0.00176   0.00502   0.00000   0.00502   2.73926
    R3        1.91546  -0.00005  -0.00125   0.00000  -0.00125   1.91421
    R4        2.88561  -0.00361  -0.01006   0.00000  -0.01006   2.87555
    R5        2.68259  -0.02888  -0.03742   0.00000  -0.03742   2.64516
    R6        2.95009   0.04209   0.44807   0.00000   0.44450   3.39459
    R7        1.86248  -0.01951   0.02110   0.00000   0.02341   1.88589
    R8        2.07780  -0.00062  -0.00168   0.00000  -0.00168   2.07612
    R9        2.06184   0.00038   0.00214   0.00000   0.00214   2.06398
   R10        2.06831   0.00081   0.00496   0.00000   0.00496   2.07326
   R11        2.49689   0.01423   0.02073   0.00000   0.02073   2.51763
   R12        2.50318   0.02351   0.09762   0.00000   0.10060   2.60378
   R13        1.83426  -0.00139   0.00019   0.00000   0.00019   1.83445
    A1        1.94325  -0.00081   0.00364   0.00000   0.00365   1.94689
    A2        1.87668   0.00033   0.00121   0.00000   0.00122   1.87790
    A3        1.95416  -0.00012  -0.00804   0.00000  -0.00804   1.94612
    A4        1.97423   0.00204   0.02091   0.00000   0.02046   1.99468
    A5        2.02813  -0.00502  -0.02342   0.00000  -0.02495   2.00318
    A6        2.04343   0.00626   0.03880   0.00000   0.03858   2.08201
    A7        1.91394  -0.00259  -0.02267   0.00000  -0.02261   1.89133
    A8        1.96102   0.00030   0.00348   0.00000   0.00326   1.96428
    A9        1.94286   0.00332   0.02892   0.00000   0.02887   1.97172
   A10        1.88308   0.00028  -0.00225   0.00000  -0.00236   1.88072
   A11        1.87940  -0.00029  -0.00276   0.00000  -0.00252   1.87687
   A12        1.88071  -0.00109  -0.00538   0.00000  -0.00567   1.87504
   A13        2.17260  -0.00627  -0.09940   0.00000  -0.10100   2.07160
   A14        2.06322   0.01695   0.24597   0.00000   0.24438   2.30760
   A15        2.04420  -0.01062  -0.13860   0.00000  -0.14021   1.90399
   A16        1.93368  -0.00009   0.01906   0.00000   0.01906   1.95274
   A17        1.45992   0.02182   0.22690   0.00000   0.23203   1.69196
    D1        0.40541  -0.00330  -0.04064   0.00000  -0.04008   0.36532
    D2        2.84217   0.00349   0.02080   0.00000   0.02024   2.86242
    D3        2.50695  -0.00352  -0.04209   0.00000  -0.04154   2.46541
    D4       -1.33946   0.00327   0.01934   0.00000   0.01878  -1.32068
    D5        0.86585   0.00135   0.02363   0.00000   0.02423   0.89008
    D6        2.95993   0.00013   0.00750   0.00000   0.00818   2.96811
    D7       -1.21204   0.00131   0.02337   0.00000   0.02432  -1.18772
    D8       -1.56435  -0.00064  -0.01055   0.00000  -0.01143  -1.57577
    D9        0.52973  -0.00186  -0.02667   0.00000  -0.02748   0.50226
   D10        2.64095  -0.00068  -0.01080   0.00000  -0.01134   2.62961
   D11       -0.28441   0.00698   0.13217   0.00000   0.12972  -0.15469
   D12        2.76913   0.00736   0.21299   0.00000   0.21613   2.98526
   D13        2.12397   0.01207   0.18722   0.00000   0.18407   2.30805
   D14       -1.10567   0.01245   0.26804   0.00000   0.27048  -0.83519
   D15        2.85347  -0.00160   0.01243   0.00000   0.00258   2.85605
   D16       -0.20094  -0.00325  -0.09315   0.00000  -0.08331  -0.28425
   D17       -0.29118  -0.00100  -0.09298   0.00000  -0.09528  -0.38646
   D18        2.76887  -0.00056  -0.01756   0.00000  -0.01526   2.75361
         Item               Value     Threshold  Converged?
 Maximum Force            0.042094     0.000450     NO 
 RMS     Force            0.010445     0.000300     NO 
 Maximum Displacement     0.818511     0.001800     NO 
 RMS     Displacement     0.212570     0.001200     NO 
 Predicted change in Energy=-2.093734D-02
 GradGradGradGradGradGradGradGradGradGradGradGradGradGradGradGradGradGrad

 Leave Link  103 at Mon Apr 18 09:33:33 2016, MaxMem=   33554432 cpu:       0.0
 (Enter c:\G09w03\l202.exe)
                          Input orientation:                          
 ---------------------------------------------------------------------
 Center     Atomic      Atomic             Coordinates (Angstroms)
 Number     Number       Type             X           Y           Z
 ---------------------------------------------------------------------
      1          7           0       -1.304453   -1.265243    0.246116
      2          1           0       -2.268776   -1.160182    0.536901
      3          6           0       -0.703624    0.013601   -0.077569
      4          1           0        0.982916    1.465236   -1.150275
      5          6           0       -1.411180    1.211469    0.538853
      6          6           0        0.694459    0.004421   -0.145462
      7          1           0       -1.534257    1.024958    1.614521
      8          1           0       -0.843743    2.137636    0.424149
      9          1           0       -2.409218    1.383074    0.116770
     10          8           0        1.347272   -1.085010    0.256933
     11          1           0       -1.290886   -1.893581   -0.548294
     12          8           0        1.606927    0.945348   -0.570384
     13          1           0        2.264850   -1.094625   -0.059780
 ---------------------------------------------------------------------
                    Distance matrix (angstroms):
                    1          2          3          4          5
     1  N    0.000000
     2  H    1.012676   0.000000
     3  C    1.449555   2.050620   0.000000
     4  H    3.825896   4.506982   2.470296   0.000000
     5  C    2.496235   2.521944   1.521676   2.940960   0.000000
     6  C    2.400214   3.256175   1.399761   1.796341   2.521699
     7  H    2.677753   2.544724   2.139150   3.764851   1.098633
     8  H    3.438536   3.594306   2.186978   2.503520   1.092212
     9  H    2.872424   2.581548   2.195967   3.621978   1.097124
    10  O    2.657865   3.627649   2.350535   2.935430   3.600327
    11  H    1.012956   1.634561   2.050318   4.100514   3.292065
    12  O    3.745600   4.547572   2.539619   0.997971   3.226483
    13  H    3.586448   4.573193   3.168647   3.063564   4.380597
                    6          7          8          9         10
     6  C    0.000000
     7  H    3.017649   0.000000
     8  H    2.690934   1.769702   0.000000
     9  H    3.406209   1.771175   1.764811   0.000000
    10  O    1.332271   3.820762   3.900507   4.496921   0.000000
    11  H    2.776019   3.640723   4.170886   3.525542   2.874379
    12  O    1.377861   3.827163   2.901107   4.097951   2.207765
    13  H    1.918691   4.661452   4.510549   5.293116   0.970747
                   11         12         13
    11  H    0.000000
    12  O    4.056763   0.000000
    13  H    3.676988   2.203423   0.000000
 Symmetry turned off by external request.
 Stoichiometry    C3H7NO2
 Framework group  C1[X(C3H7NO2)]
 Deg. of freedom    33
 Full point group                 C1      NOp   1
 Rotational constants (GHZ):      5.1207094      3.0418031      2.0489977
 Leave Link  202 at Mon Apr 18 09:33:33 2016, MaxMem=   33554432 cpu:       0.0
 (Enter c:\G09w03\l301.exe)
 Standard basis: 6-311++G(d,p) (5D, 7F)
 Ernie: Thresh=  0.10000D-02 Tol=  0.10000D-05 Strict=F.
 Integral buffers will be    262144 words long.
 Raffenetti 2 integral format.
 Two-electron integral symmetry is turned off.
   181 basis functions,   279 primitive gaussians,   187 cartesian basis functions
    24 alpha electrons       24 beta electrons
       nuclear repulsion energy       246.0985894879 Hartrees.
 IExCor=  402 DFT=T Ex+Corr=B3LYP ExCW=0 ScaHFX=  0.200000
 ScaDFX=  0.800000  0.720000  1.000000  0.810000 ScalE2=  1.000000  1.000000
 IRadAn=      0 IRanWt=     -1 IRanGd=            0 ICorTp=0
 NAtoms=   13 NActive=   13 NUniq=   13 SFac= 1.00D+00 NAtFMM=   50 NAOKFM=F Big=F
 ------------------------------------------------------------------------------
 Polarizable Continuum Model (PCM)
 =================================
 Model                : C-PCM.
 Atomic radii         : UFF (Universal Force Field).
 Polarization charges : Total charges.
 Charge compensation  : None.
 Solution method      : Matrix inversion.
 Cavity type          : Scaled VdW (van der Waals Surface) (Alpha=1.100).
 Cavity algorithm     : GePol (No added spheres)
                        Default sphere list used, NSphG=   13.
[...]
   R12        2.60733  -0.00003   0.00000  -0.00018  -0.00018   2.60715
   R13        1.82636   0.00000   0.00000   0.00000   0.00000   1.82637
    A1        1.95258   0.00000   0.00000   0.00005   0.00005   1.95262
    A2        1.90115   0.00000   0.00000   0.00007   0.00007   1.90122
    A3        1.95645   0.00000   0.00000   0.00004   0.00004   1.95649
    A4        2.01161   0.00000   0.00000   0.00003   0.00003   2.01164
    A5        2.10726   0.00001   0.00000   0.00005   0.00005   2.10731
    A6        2.16205  -0.00001   0.00000  -0.00008  -0.00008   2.16196
    A7        1.92331   0.00000   0.00000  -0.00003  -0.00003   1.92328
    A8        1.96006   0.00000   0.00000  -0.00003  -0.00003   1.96003
    A9        1.94160   0.00001   0.00000   0.00004   0.00004   1.94165
   A10        1.88222   0.00000   0.00000   0.00001   0.00001   1.88223
   A11        1.87034   0.00000   0.00000   0.00001   0.00001   1.87035
   A12        1.88294   0.00000   0.00000  -0.00001  -0.00001   1.88294
   A13        2.11030  -0.00001   0.00000  -0.00013  -0.00013   2.11017
   A14        2.21534   0.00003   0.00000   0.00024   0.00024   2.21558
   A15        1.95270  -0.00002   0.00000  -0.00009  -0.00009   1.95261
   A16        1.89716   0.00000   0.00000  -0.00008  -0.00008   1.89708
   A17        1.91995   0.00001   0.00000   0.00003   0.00003   1.91997
    D1        0.80570   0.00000   0.00000  -0.00009  -0.00009   0.80561
    D2       -2.40548   0.00000   0.00000  -0.00018  -0.00018  -2.40566
    D3        2.94723   0.00000   0.00000   0.00006   0.00006   2.94729
    D4       -0.26395   0.00000   0.00000  -0.00003  -0.00003  -0.26398
    D5        0.90230   0.00000   0.00000   0.00015   0.00015   0.90246
    D6        3.00108   0.00000   0.00000   0.00012   0.00012   3.00121
    D7       -1.16957   0.00000   0.00000   0.00013   0.00013  -1.16945
    D8       -2.16724   0.00000   0.00000   0.00024   0.00024  -2.16700
    D9       -0.06847   0.00000   0.00000   0.00021   0.00021  -0.06825
   D10        2.04406   0.00000   0.00000   0.00021   0.00021   2.04428
   D11       -0.05696   0.00000   0.00000   0.00008   0.00008  -0.05688
   D12       -3.08402   0.00000   0.00000  -0.00009  -0.00009  -3.08410
   D13        3.00882   0.00000   0.00000  -0.00002  -0.00002   3.00880
   D14       -0.01824   0.00000   0.00000  -0.00018  -0.00018  -0.01842
   D15        2.58208   0.00000   0.00000  -0.00001  -0.00001   2.58207
   D16       -0.65813   0.00000   0.00000   0.00015   0.00015  -0.65797
   D17       -0.82868   0.00000   0.00000   0.00046   0.00046  -0.82823
   D18        2.41878   0.00000   0.00000   0.00031   0.00031   2.41908
         Item               Value     Threshold  Converged?
 Maximum Force            0.000049     0.000450     YES
 RMS     Force            0.000012     0.000300     YES
 Maximum Displacement     0.000274     0.001800     YES
 RMS     Displacement     0.000105     0.001200     YES
 Predicted change in Energy=-1.801083D-08
 Optimization completed.
    -- Stationary point found.
                           ----------------------------
                           !   Optimized Parameters   !
                           ! (Angstroms and Degrees)  !
 --------------------------                            --------------------------
 ! Name  Definition              Value          Derivative Info.                !
 --------------------------------------------------------------------------------
 ! R1    R(1,2)                  1.0153         -DE/DX =    0.0                 !
 ! R2    R(1,3)                  1.4233         -DE/DX =    0.0                 !
 ! R3    R(1,11)                 1.0139         -DE/DX =    0.0                 !
 ! R4    R(3,5)                  1.5002         -DE/DX =    0.0                 !
 ! R5    R(3,6)                  1.3387         -DE/DX =    0.0                 !
 ! R6    R(4,6)                  1.9345         -DE/DX =    0.0                 !
 ! R7    R(4,12)                 0.9637         -DE/DX =    0.0                 !
 ! R8    R(5,7)                  1.0954         -DE/DX =    0.0                 !
 ! R9    R(5,8)                  1.09           -DE/DX =    0.0                 !
 ! R10   R(5,9)                  1.0965         -DE/DX =    0.0                 !
 ! R11   R(6,10)                 1.373          -DE/DX =    0.0                 !
 ! R12   R(6,12)                 1.3797         -DE/DX =    0.0                 !
 ! R13   R(10,13)                0.9665         -DE/DX =    0.0                 !
 ! A1    A(2,1,3)              111.8743         -DE/DX =    0.0                 !
 ! A2    A(2,1,11)             108.928          -DE/DX =    0.0                 !
 ! A3    A(3,1,11)             112.0966         -DE/DX =    0.0                 !
 ! A4    A(1,3,5)              115.2568         -DE/DX =    0.0                 !
 ! A5    A(1,3,6)              120.737          -DE/DX =    0.0                 !
 ! A6    A(5,3,6)              123.8763         -DE/DX =    0.0                 !
 ! A7    A(3,5,7)              110.1976         -DE/DX =    0.0                 !
 ! A8    A(3,5,8)              112.3033         -DE/DX =    0.0                 !
 ! A9    A(3,5,9)              111.2455         -DE/DX =    0.0                 !
 ! A10   A(7,5,8)              107.843          -DE/DX =    0.0                 !
 ! A11   A(7,5,9)              107.1625         -DE/DX =    0.0                 !
 ! A12   A(8,5,9)              107.8848         -DE/DX =    0.0                 !
 ! A13   A(3,6,10)             120.9111         -DE/DX =    0.0                 !
 ! A14   A(3,6,12)             126.9297         -DE/DX =    0.0                 !
 ! A15   A(10,6,12)            111.8815         -DE/DX =    0.0                 !
 ! A16   A(6,10,13)            108.6991         -DE/DX =    0.0                 !
 ! A17   A(4,12,6)             110.0049         -DE/DX =    0.0                 !
 ! D1    D(2,1,3,5)             46.1634         -DE/DX =    0.0                 !
 ! D2    D(2,1,3,6)           -137.8237         -DE/DX =    0.0                 !
 ! D3    D(11,1,3,5)           168.864          -DE/DX =    0.0                 !
 ! D4    D(11,1,3,6)           -15.1231         -DE/DX =    0.0                 !
 ! D5    D(1,3,5,7)             51.6982         -DE/DX =    0.0                 !
 ! D6    D(1,3,5,8)            171.9493         -DE/DX =    0.0                 !
 ! D7    D(1,3,5,9)            -67.0116         -DE/DX =    0.0                 !
 ! D8    D(6,3,5,7)           -124.1739         -DE/DX =    0.0                 !
 ! D9    D(6,3,5,8)             -3.9228         -DE/DX =    0.0                 !
 ! D10   D(6,3,5,9)            117.1162         -DE/DX =    0.0                 !
 ! D11   D(1,3,6,10)            -3.2637         -DE/DX =    0.0                 !
 ! D12   D(1,3,6,12)          -176.7011         -DE/DX =    0.0                 !
 ! D13   D(5,3,6,10)           172.3924         -DE/DX =    0.0                 !
 ! D14   D(5,3,6,12)            -1.0449         -DE/DX =    0.0                 !
 ! D15   D(3,6,10,13)          147.9422         -DE/DX =    0.0                 !
 ! D16   D(12,6,10,13)         -37.7079         -DE/DX =    0.0                 !
 ! D17   D(3,6,12,4)           -47.48           -DE/DX =    0.0                 !
 ! D18   D(10,6,12,4)          138.5857         -DE/DX =    0.0                 !
 --------------------------------------------------------------------------------
 GradGradGradGradGradGradGradGradGradGradGradGradGradGradGradGradGradGrad

 Leave Link  103 at Mon Apr 18 10:37:04 2016, MaxMem=   33554432 cpu:       0.0
 (Enter c:\G09w03\l9999.exe)
 1|1|UNPC-WIN-20150318OUM|Freq|RB3LYP|6-311++G(d,p)|C3H7N1O2|ADMINISTRA
 TOR|18-Apr-2016|0||#P Geom=AllCheck Guess=TCheck SCRF=Check GenChk RB3
 LYP/6-311++G(d,p) Freq||Ala-S-opt-freq-cpcm-w-pa2-6-311++gdp||0,1|N,-1
 .3718311791,-1.2177490636,0.5065583357|H,-2.2950382147,-1.189141538,0.
 0850177645|C,-0.6421207807,-0.01951373,0.2669204085|H,1.0741073302,1.6
 62153582,-0.8288598561|C,-1.4049306712,1.2515199585,0.4977651932|C,0.6
 55685435,-0.0622619524,-0.0584487138|H,-1.8685080606,1.2394711759,1.49
 02169942|H,-0.7671552356,2.1334639536,0.4377164251|H,-2.2121210921,1.3
 691517596,-0.234987515|O,1.3323564067,-1.2560999878,-0.1045153722|H,-0
 .8808283966,-2.0375453005,0.1677172086|O,1.4969256794,1.0135410813,-0.
 2550178273|H,2.0137448193,-1.1998872187,-0.7876048354||Version=IA32W-G
 09RevB.01|HF=-323.8244179|RMSD=1.301e-009|RMSF=2.402e-005|ZeroPoint=0.
 1053157|Thermal=0.1130118|Dipole=-0.486279,0.5627241,-1.4376667|Dipole
 Deriv=-0.6980399,-0.216678,0.2138361,-0.5475285,-0.8418124,0.2165041,0
 .425245,0.1913305,-0.6232975,0.156912,-0.0057811,-0.1002638,-0.0040673
 ,0.1857549,0.0411982,-0.2932598,-0.0476281,0.2926143,0.2986902,0.32206
 27,-0.2237668,0.6437167,0.5582006,-0.1942461,-0.1664033,0.0031306,-0.0
 845205,0.2460476,0.0327189,-0.0933766,0.092278,0.3826081,-0.0299787,-0
 .0263626,0.0095884,0.387236,0.1686004,0.0058401,0.0107323,-0.1566128,-
 0.0095778,0.0299221,0.0628391,-0.0088954,0.2012011,1.6047002,-0.156075
 8,-0.3420309,-0.0927904,1.489409,-0.0542574,-0.2651306,0.0354742,-0.00
 8447,-0.0167516,0.054524,0.1082092,0.0573808,0.0538715,0.0246181,0.170
 6243,-0.0375744,-0.1411506,-0.0035927,-0.1403236,0.0179344,-0.0606836,
 -0.0847569,0.000366,0.0221032,0.0251602,0.1011224,-0.1282425,0.0702795
 ,-0.1010579,0.0626474,0.0388655,-0.0407006,-0.163595,0.0165191,-0.0269
 32,-1.2413176,0.4123518,0.0995102,0.7533301,-1.0825855,-0.2198515,-0.0
 132147,-0.1061726,-0.3182457,0.1764487,0.0328629,0.0382194,-0.0000494,
 0.1654636,-0.0656349,0.0006882,-0.1567668,0.2970534,-1.0180707,-0.4058
 57,0.3529153,-0.7623391,-1.2009292,0.212749,0.1137821,0.0384985,-0.386
 8878,0.4546158,-0.0059244,0.0191391,0.0147181,0.3454886,0.0793117,0.13
 26842,0.0373359,0.3102539|Polar=93.2856623,-0.5350673,69.3629135,-11.4
 431345,-1.0456018,58.2019124|PG=C01 [X(C3H7N1O2)]|NImag=0||0.67686838,
 -0.07201655,0.60629679,0.06774077,0.08943934,0.18274851,-0.34908270,0.
 01905912,-0.13774107,0.37986450,0.01952324,-0.06362284,0.00130652,-0.0
 1245380,0.06515345,-0.18258434,0.00032900,-0.08399395,0.15267561,-0.00
 451215,0.08211566,-0.15512462,-0.06403857,0.00711912,-0.02012534,-0.03
 523209,0.01338064,0.81773482,-0.06145462,-0.20904291,0.00173357,-0.003
 47034,0.00031747,0.00529473,-0.01981681,0.56114233,0.03130951,0.041043
 93,-0.04474832,-0.00475390,-0.01295222,-0.00105477,-0.15372158,0.00994
 408,0.18258857,-0.00123919,-0.00075581,-0.00025100,-0.00004735,-0.0003
 4093,-0.00053837,0.00015888,-0.00135346,0.00067671,0.12942720,0.001780
 69,0.00228333,-0.00228949,-0.00007117,0.00011083,0.00035288,-0.0004636
 6,0.00071987,0.00047408,-0.13077395,0.26133924,0.00009504,0.00024898,-
 0.00010077,-0.00016726,0.00010749,0.00035351,-0.00006224,-0.00083704,0
 .00113750,0.13582875,-0.20968396,0.18651380,0.01103369,-0.01810875,-0.
 00292991,0.00197776,-0.00046475,0.00037503,-0.12317303,0.05960261,0.01
 418605,-0.00052525,-0.00039556,0.00033552,0.53538312,0.01480891,-0.035
 90170,-0.00392738,0.00102030,0.00155543,-0.00067903,0.05276386,-0.1767
 0529,-0.01400038,-0.00110012,0.00099709,0.00109726,0.04825961,0.527450
 57,-0.00315567,0.00499011,0.00273340,0.00088840,-0.00069949,0.00064442
 ,0.01557993,-0.01960388,-0.07079913,-0.00032638,0.00109477,-0.00031665
 ,-0.00049969,-0.01314189,0.52380205,-0.01712288,-0.00419922,0.00547353
 ,0.00150736,0.00134500,0.00234929,-0.48288642,0.00021517,0.10730087,0.
 00714362,0.01394513,-0.00178612,-0.01469822,0.01408063,0.00331404,0.83
 978095,-0.04004860,-0.00897254,0.01397796,-0.00110520,-0.00484848,0.00
 018387,0.02374515,-0.09374662,-0.01161510,-0.02370913,-0.02741613,0.00
 398381,0.02586676,0.00144930,-0.00434622,-0.02263196,0.52629140,0.0112
 8123,0.00776260,0.00062275,-0.00212332,-0.00182509,0.00038473,0.096199
 64,-0.00566109,-0.07472633,0.01850945,0.01464780,-0.00248925,0.0046978
 9,-0.00380662,-0.00055899,-0.17184124,-0.02939217,0.17372226,0.0011042
 9,-0.00137259,-0.00109222,0.00010824,-0.00000941,-0.00001984,-0.013052
 34,0.00244485,0.01701873,0.00051463,-0.00006493,-0.00024903,-0.0875570
 3,-0.00438499,0.09640483,0.00359651,0.00111066,0.00068128,0.09620088,-
 0.00042408,0.00231988,0.00068248,0.00003024,-0.00028181,-0.00028340,0.
 01546382,-0.00139910,-0.02705856,0.00074666,-0.00046929,-0.00030892,-0
 .00410634,-0.04637746,0.00581908,-0.00348479,-0.00283092,-0.00106930,-
 0.00057489,0.04887623,-0.00066327,0.00043920,0.00059193,-0.00007634,-0
 .00016969,-0.00043537,0.00519010,-0.00196074,-0.00166897,0.00001070,-0
 .00014139,-0.00007641,0.09613720,0.00613048,-0.25602451,-0.00288961,-0
 .00039479,0.00015663,-0.10742869,-0.00536470,0.27818912,-0.00180555,0.
 00319429,0.00045559,-0.00016309,0.00027099,0.00008009,0.01315014,0.013
 61725,-0.00214626,-0.00098785,0.00099833,0.00075936,-0.14136603,-0.129
 55791,0.01013266,-0.00039588,0.00001597,0.00069173,-0.00783167,-0.0091
 6709,-0.00026315,0.15318337,0.00446110,-0.00444557,-0.00196122,0.00022
 761,0.00044242,0.00018905,-0.01863425,-0.01865385,0.00341279,0.0014734
 1,0.00016692,-0.00140455,-0.12508940,-0.22047212,0.01121652,-0.0020351
 3,-0.00128036,0.00070010,0.00057574,0.00025377,0.00066791,0.13798079,0
 .23939506,0.00042375,-0.00019934,0.00062632,0.00040753,0.00025602,-0.0
 0021685,-0.00453610,-0.00370714,-0.00205534,0.00130039,-0.00068590,-0.
 00038033,0.00982763,0.01137492,-0.04588894,0.00000320,-0.00024942,-0.0
 0004988,0.01692211,0.02393003,-0.00004195,-0.01227513,-0.01262431,0.04
 571198,0.00108421,-0.00071281,0.00038578,0.00030975,0.00066601,-0.0002
 7400,-0.01795724,0.00467184,-0.00732836,-0.00013871,0.00052729,-0.0005
 0552,-0.17775975,0.01481754,-0.12569269,0.00398437,0.00181556,-0.00179
 332,0.01040827,-0.00132894,0.00843411,-0.01357175,0.00203607,-0.012370
 19,0.19636434,0.00053542,0.00205458,-0.00021755,-0.00094782,-0.0003833
 5,-0.00019457,0.02477004,-0.00498310,0.01801368,0.00010804,-0.00011419
 ,-0.00037795,0.01664647,-0.04880762,0.01694584,-0.00334910,-0.00301685
 ,0.00200552,0.00077567,-0.00053936,0.00121433,-0.01808867,0.00322962,-
 0.01844723,-0.02290049,0.05202050,0.00015837,0.00079243,0.00000189,-0.
 00040197,0.00055932,-0.00020967,0.00615648,-0.00008874,0.00741419,0.00
 001021,0.00008885,-0.00002532,-0.12540181,0.01515675,-0.16051526,0.001
 09736,-0.00048259,0.00051929,-0.02163879,0.00199966,-0.02084437,0.0026
 4153,-0.00104939,0.00167206,0.13751451,-0.01678018,0.17279105,-0.00253
 755,-0.00428826,0.00054660,-0.00057830,0.00033164,-0.00044129,-0.02050
 055,0.05378349,0.00058544,-0.00069321,-0.00260191,0.00053783,-0.002645
 50,-0.00556971,0.00351498,-0.14472512,0.09823167,0.02116909,-0.0020265
 7,0.00289521,0.00113790,0.00039878,0.00051282,-0.00007730,-0.00192104,
 0.00155581,-0.00020184,0.40749259,0.00295666,0.00894961,-0.00452624,-0
 .00066650,0.00126379,0.00239892,0.00705213,-0.02411229,0.00431899,-0.0
 0121983,-0.00637702,-0.00712735,-0.00111009,0.00404786,-0.00315658,0.0
 7354609,-0.20291129,0.01847260,0.00177794,-0.00184490,-0.00130983,-0.0
 0022594,-0.00023457,0.00014354,0.00119598,-0.00092678,0.00029841,-0.08
 915868,0.32659293,-0.00009201,-0.00079401,-0.00381601,-0.00013384,-0.0
 0074344,-0.00031019,0.01034270,-0.01027566,0.00654209,0.00082379,0.001
 23349,0.00075337,0.00403447,0.00046049,0.00850565,0.03163049,-0.003126
 03,-0.05510708,-0.00068429,0.00133779,-0.00001819,-0.00035931,0.000085
 17,0.00006338,0.00136202,-0.00200192,-0.00084297,-0.27985434,-0.047030
 90,0.29832499,-0.15317898,0.14688640,0.05360389,-0.01395613,0.02791372
 ,0.01492146,0.01326260,-0.01551072,-0.00744253,-0.00005155,0.00022305,
 0.00013206,-0.00158309,-0.00285682,0.00107606,0.00048642,-0.00456927,-
 0.00061086,-0.00023067,0.00018963,0.00001533,0.00053698,-0.00090763,0.
 00002460,0.00005266,-0.00012303,0.00013116,-0.00064598,0.00139772,-0.0
 0037437,0.15568759,0.13999874,-0.29120148,-0.09961378,-0.00179242,0.00
 136804,-0.00057086,0.01560511,-0.02709417,-0.01151343,0.00002399,-0.00
 014190,0.00003886,-0.00488737,-0.00325753,0.00063710,0.00148865,-0.001
 26719,0.00028287,-0.00005244,0.00044125,-0.00007631,0.00091614,-0.0011
 4164,-0.00018425,-0.00002726,0.00028799,0.00008891,0.00088910,0.001073
 29,-0.00061544,-0.15333444,0.31970186,0.07335408,-0.14072751,-0.063482
 80,-0.00947457,0.01615570,0.00234455,-0.00142325,0.01271705,-0.0024969
 8,0.00000643,0.00029184,-0.00007232,0.00095221,0.00090298,0.00068193,0
 .00037943,-0.00045655,0.00238910,-0.00028155,0.00028557,0.00031607,-0.
 00011527,0.00015790,0.00078331,0.00023918,-0.00044696,0.00002487,-0.00
 078805,0.00059565,-0.00133699,-0.06199485,0.11120972,0.06153516,-0.010
 66999,-0.00540885,0.00743694,0.00014912,-0.00165870,-0.00034935,-0.012
 03919,-0.03317724,0.00231644,-0.13372514,0.11732347,-0.13473962,0.0017
 2802,-0.00241983,-0.00070504,-0.17354298,-0.06197209,0.00927873,-0.001
 36486,0.00003179,0.00059986,-0.00125751,-0.00048958,0.00038383,-0.0010
 4492,0.00100305,-0.00025677,0.01579204,0.00878168,-0.00425059,-0.00044
 157,0.00089568,-0.00113296,0.31433056,-0.00920953,-0.00924413,0.006267
 99,0.00031223,-0.00126880,-0.00279699,-0.00158117,-0.00053752,-0.00006
 544,0.15681344,-0.23120988,0.21384704,0.00273234,-0.00444447,-0.001200
 62,-0.10616313,-0.17626999,0.02845661,-0.00015561,0.00183269,0.0010093
 7,0.00008938,0.00280819,0.00042180,-0.00116748,0.00164139,-0.00045256,
 -0.01880287,-0.06523360,0.00766313,-0.00006933,0.00067397,-0.00087204,
 -0.02120066,0.47681835,0.00293743,-0.00424357,0.00963430,0.00120924,0.
 00228899,0.00022831,0.00711391,0.01234547,-0.00041729,-0.15564316,0.19
 366967,-0.18563267,-0.00143370,0.00025217,-0.00386452,0.02363302,0.035
 03462,-0.04539175,0.00057172,-0.00024062,-0.00010577,0.00038463,0.0007
 5051,-0.00019288,-0.00012238,0.00065772,0.00011125,0.00036604,0.013917
 79,0.00389373,-0.00016883,0.00023074,-0.00067875,0.12201993,-0.2548443
 5,0.22382782,0.00067089,0.00176162,-0.00074801,0.00003617,0.00010908,0
 .00042507,0.00055229,0.00044798,0.00199889,0.00016391,-0.00042678,-0.0
 0017879,-0.00081469,0.00013853,-0.00053142,-0.02312773,0.00325047,0.01
 385969,0.00013031,-0.00027122,-0.00020413,0.00011005,-0.00011154,-0.00
 003430,0.00018980,0.00001460,0.00019157,-0.24740959,-0.00432716,0.2375
 5528,0.00006172,0.00027652,0.00027916,0.00208643,-0.00159761,-0.000867
 85,0.26735044,-0.00091138,0.00052697,-0.00087220,-0.00014225,0.0001938
 7,0.00028855,0.00036644,-0.00590482,-0.00000244,0.00008767,0.00011113,
 0.00041634,0.00105445,0.00046594,0.00144525,0.03724268,-0.00518032,-0.
 03057384,-0.00007000,0.00001903,-0.00004384,-0.00004355,-0.00006787,-0
 .00002871,0.00040670,-0.00046285,-0.00013087,-0.03777829,-0.04028702,0
 .05380733,0.00076073,0.00055750,0.00018663,-0.00170871,0.00443381,0.00
 018086,0.00073550,0.04559462,-0.00080488,0.00091884,-0.00081725,-0.000
 30851,0.00022805,0.00014963,-0.00133935,0.00009940,0.00028478,-0.00040
 751,0.00094735,0.00033554,-0.00028089,0.00018026,0.00160056,0.00133575
 ,-0.00311741,0.00052852,-0.00020425,0.00027089,-0.00003822,0.00001352,
 -0.00014051,-0.00003087,0.00015086,-0.00037075,-0.00009700,0.25350495,
 0.02300501,-0.25665179,0.00068687,0.00008585,-0.00000716,-0.00060140,0
 .00256606,-0.00141178,-0.25174515,-0.02467306,0.25615504||-0.00000327,
 -0.00000454,0.00002005,-0.00000497,0.00000399,0.00000647,0.00002818,0.
 00004505,-0.00000343,0.00000194,-0.00000411,-0.00001190,0.00000694,-0.
 00000449,-0.00000403,-0.00001203,-0.00011904,-0.00000372,0.00000350,0.
 00001274,-0.00000019,0.00000415,0.00000496,-0.00000723,0.00000265,-0.0
 0000053,-0.00000176,-0.00002771,0.00003907,0.00000276,-0.00000331,-0.0
 0000178,0.00000810,0.00001015,0.00003981,-0.00000790,-0.00000622,-0.00
 001112,0.00000276|||@


 HONESTY IN A LAWYER IS LIKE A HEN'S HIND LEGS.
  -- MAGNUS OLESON, LAKE WOBEGON PATRIARCH, C.1875
 Job cpu time:  0 days  0 hours 14 minutes 43.0 seconds.
 File lengths (MBytes):  RWF=     60 Int=      0 D2E=      0 Chk=      6 Scr=      1
 Normal termination of Gaussian 09 at Mon Apr 18 10:37:04 2016.
