 Entering Gaussian System, Link 0=g09
 Input=Ala-S-opt-freq-tsa3-6-31g.com
 Output=Ala-S-opt-freq-tsa3-6-31g.log
 Initial command:
 /usr/local/gau/g09/l1.exe "/tmp/Gau-3509.inp" -scrdir="/tmp/"
 Entering Link 1 = /usr/local/gau/g09/l1.exe PID=      3511.
  
 Copyright (c) 1988,1990,1992,1993,1995,1998,2003,2009,2013,
            Gaussian, Inc.  All Rights Reserved.
  
 This is part of the Gaussian(R) 09 program.  It is based on
 the Gaussian(R) 03 system (copyright 2003, Gaussian, Inc.),
 the Gaussian(R) 98 system (copyright 1998, Gaussian, Inc.),
 the Gaussian(R) 94 system (copyright 1995, Gaussian, Inc.),
 the Gaussian 92(TM) system (copyright 1992, Gaussian, Inc.),
 the Gaussian 90(TM) system (copyright 1990, Gaussian, Inc.),
 the Gaussian 88(TM) system (copyright 1988, Gaussian, Inc.),
 the Gaussian 86(TM) system (copyright 1986, Carnegie Mellon
 University), and the Gaussian 82(TM) system (copyright 1983,
 Carnegie Mellon University). Gaussian is a federally registered
 trademark of Gaussian, Inc.
  
 This software contains proprietary and confidential information,
 including trade secrets, belonging to Gaussian, Inc.
  
 This software is provided under written license and may be
 used, copied, transmitted, or stored only in accord with that
 written license.
  
 The following legend is applicable only to US Government
 contracts under FAR:
  
                    RESTRICTED RIGHTS LEGEND
  
 Use, reproduction and disclosure by the US Government is
 subject to restrictions as set forth in subparagraphs (a)
 and (c) of the Commercial Computer Software - Restricted
 Rights clause in FAR 52.227-19.
  
 Gaussian, Inc.
 340 Quinnipiac St., Bldg. 40, Wallingford CT 06492
  
  
 ---------------------------------------------------------------
 Warning -- This program may not be used in any manner that
 competes with the business of Gaussian, Inc. or will provide
 assistance to any competitor of Gaussian, Inc.  The licensee
 of this program is prohibited from giving any competitor of
 Gaussian, Inc. access to this program.  By using this program,
 the user acknowledges that Gaussian, Inc. is engaged in the
 business of creating and licensing software in the field of
 computational chemistry and represents and warrants to the
 licensee that it is not a competitor of Gaussian, Inc. and that
 it will not use this program in any manner prohibited above.
 ---------------------------------------------------------------
  

 Cite this work as:
 Gaussian 09, Revision D.01,
 M. J. Frisch, G. W. Trucks, H. B. Schlegel, G. E. Scuseria, 
 M. A. Robb, J. R. Cheeseman, G. Scalmani, V. Barone, B. Mennucci, 
 G. A. Petersson, H. Nakatsuji, M. Caricato, X. Li, H. P. Hratchian, 
 A. F. Izmaylov, J. Bloino, G. Zheng, J. L. Sonnenberg, M. Hada, 
 M. Ehara, K. Toyota, R. Fukuda, J. Hasegawa, M. Ishida, T. Nakajima, 
 Y. Honda, O. Kitao, H. Nakai, T. Vreven, J. A. Montgomery, Jr., 
 J. E. Peralta, F. Ogliaro, M. Bearpark, J. J. Heyd, E. Brothers, 
 K. N. Kudin, V. N. Staroverov, T. Keith, R. Kobayashi, J. Normand, 
 K. Raghavachari, A. Rendell, J. C. Burant, S. S. Iyengar, J. Tomasi, 
 M. Cossi, N. Rega, J. M. Millam, M. Klene, J. E. Knox, J. B. Cross, 
 V. Bakken, C. Adamo, J. Jaramillo, R. Gomperts, R. E. Stratmann, 
 O. Yazyev, A. J. Austin, R. Cammi, C. Pomelli, J. W. Ochterski, 
 R. L. Martin, K. Morokuma, V. G. Zakrzewski, G. A. Voth, 
 P. Salvador, J. J. Dannenberg, S. Dapprich, A. D. Daniels, 
 O. Farkas, J. B. Foresman, J. V. Ortiz, J. Cioslowski, 
 and D. J. Fox, Gaussian, Inc., Wallingford CT, 2013.
 
 ******************************************
 Gaussian 09:  ES64L-G09RevD.01 24-Apr-2013
                14-Apr-2016 
 ******************************************
 %chk=Ala-S-opt-freq-tsa3-6-31g.chk
 ------------------------------------------------
 #p opt=(calcfc,ts) freq rb3lyp/6-31g iop(1/11=1)
 ------------------------------------------------
 1/5=1,10=4,11=1,14=-1,18=20,26=3,38=1/1,3;
 2/9=110,12=2,17=6,18=5,40=1/2;
 3/5=1,6=6,11=2,16=1,25=1,30=1,71=2,74=-5,116=1,140=1/1,2,3;
 4//1;
 5/5=2,38=5/2;
 8/6=4,10=90,11=11/1;
 11/6=1,8=1,9=11,15=111,16=1/1,2,10;
 10/6=1,13=1/2;
 6/7=2,8=2,9=2,10=2,28=1/1;
 7/10=1,18=20,25=1/1,2,3,16;
 1/5=1,10=4,11=1,14=-1,18=20,26=3/3(2);
 2/9=110/2;
 99//99;
 2/9=110/2;
 3/5=1,6=6,11=2,16=1,25=1,30=1,71=1,74=-5,116=1/1,2,3;
 4/5=5,16=3,69=1/1;
 5/5=2,38=5/2;
 7//1,2,3,16;
 1/5=1,11=1,14=-1,18=20,26=3/3(-5);
 2/9=110/2;
 6/7=2,8=2,9=2,10=2,19=2,28=1/1;
 99/9=1/99;
 Leave Link    1 at Thu Apr 14 11:02:35 2016, MaxMem=           0 cpu:         0.0
 (Enter /usr/local/gau/g09/l101.exe)
 -------------------------
 Ala-S-opt-freq-tsa3-6-31g
 -------------------------
 Symbolic Z-matrix:
 Charge =  0 Multiplicity = 1
 N                     1.20654   0.89429   0.2474 
 H                     2.20377   0.97022   0.16494 
 C                     0.5886   -0.35413   0.22217 
 H                    -2.13893  -1.84848  -0.4842 
 C                     1.49663  -1.55221   0.21449 
 C                    -0.90667  -0.47288   0.21495 
 H                     2.14214  -1.55513   1.10314 
 H                     0.91536  -2.47472   0.21151 
 H                     2.15185  -1.54516  -0.66804 
 O                    -1.71596   0.67833   0.12364 
 H                     0.64419   1.72207   0.15068 
 O                    -1.59692  -1.68841   0.31905 
 H                    -0.31709   0.70564   0.33371 
 
 Add virtual bond connecting atoms H13        and C3         Dist= 2.64D+00.
 Add virtual bond connecting atoms H13        and C6         Dist= 2.50D+00.
 Add virtual bond connecting atoms H13        and O10        Dist= 2.67D+00.
 Add virtual bond connecting atoms H13        and H11        Dist= 2.67D+00.
 NAtoms=     13 NQM=       13 NQMF=       0 NMMI=      0 NMMIF=      0
                NMic=       0 NMicF=      0.
                    Isotopes and Nuclear Properties:
 (Nuclear quadrupole moments (NQMom) in fm**2, nuclear magnetic moments (NMagM)
  in nuclear magnetons)

  Atom         1           2           3           4           5           6           7           8           9          10
 IAtWgt=          14           1          12           1          12          12           1           1           1          16
 AtmWgt=  14.0030740   1.0078250  12.0000000   1.0078250  12.0000000  12.0000000   1.0078250   1.0078250   1.0078250  15.9949146
 NucSpn=           2           1           0           1           0           0           1           1           1           0
 AtZEff=   0.0000000   0.0000000   0.0000000   0.0000000   0.0000000   0.0000000   0.0000000   0.0000000   0.0000000   0.0000000
 NQMom=    2.0440000   0.0000000   0.0000000   0.0000000   0.0000000   0.0000000   0.0000000   0.0000000   0.0000000   0.0000000
 NMagM=    0.4037610   2.7928460   0.0000000   2.7928460   0.0000000   0.0000000   2.7928460   2.7928460   2.7928460   0.0000000
 AtZNuc=   7.0000000   1.0000000   6.0000000   1.0000000   6.0000000   6.0000000   1.0000000   1.0000000   1.0000000   8.0000000

  Atom        11          12          13
 IAtWgt=           1          16           1
 AtmWgt=   1.0078250  15.9949146   1.0078250
 NucSpn=           1           0           1
 AtZEff=   0.0000000   0.0000000   0.0000000
 NQMom=    0.0000000   0.0000000   0.0000000
 NMagM=    2.7928460   0.0000000   2.7928460
 AtZNuc=   1.0000000   8.0000000   1.0000000
 Leave Link  101 at Thu Apr 14 11:02:36 2016, MaxMem=    33554432 cpu:         0.1
 (Enter /usr/local/gau/g09/l103.exe)

 GradGradGradGradGradGradGradGradGradGradGradGradGradGradGradGradGradGrad
 Berny optimization.
 Initialization pass.
                           ----------------------------
                           !    Initial Parameters    !
                           ! (Angstroms and Degrees)  !
 --------------------------                            --------------------------
 ! Name  Definition              Value          Derivative Info.                !
 --------------------------------------------------------------------------------
 ! R1    R(1,2)                  1.0035         calculate D2E/DX2 analytically  !
 ! R2    R(1,3)                  1.3932         calculate D2E/DX2 analytically  !
 ! R3    R(1,11)                 1.0054         calculate D2E/DX2 analytically  !
 ! R4    R(3,5)                  1.5033         calculate D2E/DX2 analytically  !
 ! R5    R(3,6)                  1.5            calculate D2E/DX2 analytically  !
 ! R6    R(3,13)                 1.3985         calculate D2E/DX2 analytically  !
 ! R7    R(4,12)                 0.9822         calculate D2E/DX2 analytically  !
 ! R8    R(5,7)                  1.0984         calculate D2E/DX2 analytically  !
 ! R9    R(5,8)                  1.0904         calculate D2E/DX2 analytically  !
 ! R10   R(5,9)                  1.0992         calculate D2E/DX2 analytically  !
 ! R11   R(6,10)                 1.4102         calculate D2E/DX2 analytically  !
 ! R12   R(6,12)                 1.4017         calculate D2E/DX2 analytically  !
 ! R13   R(6,13)                 1.3231         calculate D2E/DX2 analytically  !
 ! R14   R(10,13)                1.4148         calculate D2E/DX2 analytically  !
 ! R15   R(11,13)                1.4109         calculate D2E/DX2 analytically  !
 ! A1    A(2,1,3)              120.4689         calculate D2E/DX2 analytically  !
 ! A2    A(2,1,11)             119.0538         calculate D2E/DX2 analytically  !
 ! A3    A(3,1,11)             119.2059         calculate D2E/DX2 analytically  !
 ! A4    A(1,3,5)              116.508          calculate D2E/DX2 analytically  !
 ! A5    A(1,3,6)              120.8748         calculate D2E/DX2 analytically  !
 ! A6    A(1,3,13)              66.8439         calculate D2E/DX2 analytically  !
 ! A7    A(5,3,6)              122.6153         calculate D2E/DX2 analytically  !
 ! A8    A(3,5,7)              110.6686         calculate D2E/DX2 analytically  !
 ! A9    A(3,5,8)              110.6273         calculate D2E/DX2 analytically  !
 ! A10   A(3,5,9)              111.0413         calculate D2E/DX2 analytically  !
 ! A11   A(7,5,8)              108.2564         calculate D2E/DX2 analytically  !
 ! A12   A(7,5,9)              107.4144         calculate D2E/DX2 analytically  !
 ! A13   A(8,5,9)              108.7238         calculate D2E/DX2 analytically  !
 ! A14   A(3,6,10)             120.5154         calculate D2E/DX2 analytically  !
 ! A15   A(3,6,12)             123.9986         calculate D2E/DX2 analytically  !
 ! A16   A(10,6,12)            115.4764         calculate D2E/DX2 analytically  !
 ! A17   A(1,11,13)             77.0244         calculate D2E/DX2 analytically  !
 ! A18   A(4,12,6)             110.6311         calculate D2E/DX2 analytically  !
 ! A19   A(3,13,10)            127.8675         calculate D2E/DX2 analytically  !
 ! A20   A(3,13,11)             95.4131         calculate D2E/DX2 analytically  !
 ! A21   A(6,13,11)            159.0077         calculate D2E/DX2 analytically  !
 ! A22   A(10,13,11)           131.9348         calculate D2E/DX2 analytically  !
 ! A23   L(5,3,13,1,-1)        183.3519         calculate D2E/DX2 analytically  !
 ! A24   L(12,6,13,5,-1)       183.0091         calculate D2E/DX2 analytically  !
 ! A25   L(5,3,13,1,-2)        184.7224         calculate D2E/DX2 analytically  !
 ! A26   L(12,6,13,5,-2)       189.4321         calculate D2E/DX2 analytically  !
 ! D1    D(2,1,3,5)              6.2762         calculate D2E/DX2 analytically  !
 ! D2    D(2,1,3,6)           -174.2135         calculate D2E/DX2 analytically  !
 ! D3    D(2,1,3,13)          -178.4462         calculate D2E/DX2 analytically  !
 ! D4    D(11,1,3,5)           173.2777         calculate D2E/DX2 analytically  !
 ! D5    D(11,1,3,6)            -7.2119         calculate D2E/DX2 analytically  !
 ! D6    D(11,1,3,13)          -11.4447         calculate D2E/DX2 analytically  !
 ! D7    D(2,1,11,13)          177.8813         calculate D2E/DX2 analytically  !
 ! D8    D(3,1,11,13)           10.6944         calculate D2E/DX2 analytically  !
 ! D9    D(1,3,5,7)             59.0596         calculate D2E/DX2 analytically  !
 ! D10   D(1,3,5,8)            179.0434         calculate D2E/DX2 analytically  !
 ! D11   D(1,3,5,9)            -60.1392         calculate D2E/DX2 analytically  !
 ! D12   D(6,3,5,7)           -120.4415         calculate D2E/DX2 analytically  !
 ! D13   D(6,3,5,8)             -0.4577         calculate D2E/DX2 analytically  !
 ! D14   D(6,3,5,9)            120.3597         calculate D2E/DX2 analytically  !
 ! D15   D(7,5,13,10)         -131.4738         calculate D2E/DX2 analytically  !
 ! D16   D(7,5,13,11)           68.8351         calculate D2E/DX2 analytically  !
 ! D17   D(8,5,13,10)          -13.1207         calculate D2E/DX2 analytically  !
 ! D18   D(8,5,13,11)         -172.8119         calculate D2E/DX2 analytically  !
 ! D19   D(9,5,13,10)          108.3021         calculate D2E/DX2 analytically  !
 ! D20   D(9,5,13,11)          -51.389          calculate D2E/DX2 analytically  !
 ! D21   D(1,3,6,10)             5.1914         calculate D2E/DX2 analytically  !
 ! D22   D(1,3,6,12)          -173.6291         calculate D2E/DX2 analytically  !
 ! D23   D(5,3,6,10)          -175.3288         calculate D2E/DX2 analytically  !
 ! D24   D(5,3,6,12)             5.8507         calculate D2E/DX2 analytically  !
 ! D25   D(1,3,13,10)          164.641          calculate D2E/DX2 analytically  !
 ! D26   D(1,3,13,11)            7.1212         calculate D2E/DX2 analytically  !
 ! D27   D(3,6,12,4)          -118.4765         calculate D2E/DX2 analytically  !
 ! D28   D(10,6,12,4)           62.649          calculate D2E/DX2 analytically  !
 ! D29   D(4,12,13,11)         -89.3671         calculate D2E/DX2 analytically  !
 ! D30   D(1,11,13,3)           -9.3281         calculate D2E/DX2 analytically  !
 ! D31   D(1,11,13,6)          -40.3975         calculate D2E/DX2 analytically  !
 ! D32   D(1,11,13,10)        -165.389          calculate D2E/DX2 analytically  !
 --------------------------------------------------------------------------------
 Trust Radius=3.00D-01 FncErr=1.00D-07 GrdErr=1.00D-06
 Number of steps in this run=     83 maximum allowed number of steps=    100.
 Search for a saddle point of order  1.
 GradGradGradGradGradGradGradGradGradGradGradGradGradGradGradGradGradGrad

 Leave Link  103 at Thu Apr 14 11:02:36 2016, MaxMem=    33554432 cpu:         0.0
 (Enter /usr/local/gau/g09/l202.exe)
                          Input orientation:                          
 ---------------------------------------------------------------------
 Center     Atomic      Atomic             Coordinates (Angstroms)
 Number     Number       Type             X           Y           Z
 ---------------------------------------------------------------------
      1          7           0        1.206542    0.894290    0.247403
      2          1           0        2.203772    0.970216    0.164939
      3          6           0        0.588601   -0.354130    0.222169
      4          1           0       -2.138934   -1.848485   -0.484202
      5          6           0        1.496627   -1.552214    0.214489
      6          6           0       -0.906674   -0.472877    0.214947
      7          1           0        2.142144   -1.555126    1.103145
      8          1           0        0.915360   -2.474722    0.211509
      9          1           0        2.151852   -1.545164   -0.668040
     10          8           0       -1.715955    0.678330    0.123645
     11          1           0        0.644194    1.722074    0.150681
     12          8           0       -1.596922   -1.688408    0.319053
     13          1           0       -0.317090    0.705645    0.333711
 ---------------------------------------------------------------------
                    Distance matrix (angstroms):
                    1          2          3          4          5
     1  N    0.000000
     2  H    1.003510   0.000000
     3  C    1.393212   2.089484   0.000000
     4  H    4.387513   5.217811   3.189279   0.000000
     5  C    2.463862   2.620145   1.503321   3.713926   0.000000
     6  C    2.517117   3.429270   1.500000   1.974733   2.634545
     7  H    2.758131   2.694695   2.152210   4.575299   1.098367
     8  H    3.381762   3.678284   2.145646   3.194511   1.090367
     9  H    2.771747   2.650224   2.157496   4.305420   1.099194
    10  O    2.933077   3.930797   2.527184   2.633094   3.912067
    11  H    1.005394   1.731409   2.078178   4.571407   3.384032
    12  O    3.812462   4.640830   2.562458   0.982151   3.098310
    13  H    1.537690   2.540320   1.398514   3.242171   2.898571
                    6          7          8          9         10
     6  C    0.000000
     7  H    3.354914   0.000000
     8  H    2.706881   1.773604   0.000000
     9  H    3.359174   1.771240   1.779493   0.000000
    10  O    1.410159   4.564283   4.107710   4.531073   0.000000
    11  H    2.688332   3.727074   4.205987   3.690282   2.580782
    12  O    1.401712   3.822719   2.634657   3.879198   2.377772
    13  H    1.323113   3.427965   3.413005   3.487882   1.414813
                   11         12         13
    11  H    0.000000
    12  O    4.084401   0.000000
    13  H    1.410920   2.714714   0.000000
 Stoichiometry    C3H7NO2
 Framework group  C1[X(C3H7NO2)]
 Deg. of freedom    33
 Full point group                 C1      NOp   1
 Largest Abelian subgroup         C1      NOp   1
 Largest concise Abelian subgroup C1      NOp   1
                         Standard orientation:                         
 ---------------------------------------------------------------------
 Center     Atomic      Atomic             Coordinates (Angstroms)
 Number     Number       Type             X           Y           Z
 ---------------------------------------------------------------------
      1          7           0        1.425024   -1.197504   -0.033147
      2          1           0        2.423705   -1.190550    0.064940
      3          6           0        0.703902   -0.005817   -0.003092
      4          1           0       -2.150350    1.244670    0.675901
      5          6           0        1.507657    1.264052    0.034142
      6          6           0       -0.795993   -0.013120   -0.019264
      7          1           0        2.164362    1.333084   -0.843573
      8          1           0        0.850846    2.134385    0.038619
      9          1           0        2.147367    1.300172    0.927279
     10          8           0       -1.506848   -1.229322    0.044669
     11          1           0        0.932896   -2.070798    0.044213
     12          8           0       -1.584381    1.141466   -0.120120
     13          1           0       -0.107553   -1.136285   -0.142456
 ---------------------------------------------------------------------
 Rotational constants (GHZ):      4.8925708      2.9865094      1.8869906
 Leave Link  202 at Thu Apr 14 11:02:36 2016, MaxMem=    33554432 cpu:         0.0
 (Enter /usr/local/gau/g09/l301.exe)
 Standard basis: 6-31G (6D, 7F)
 Ernie: Thresh=  0.10000D-02 Tol=  0.10000D-05 Strict=F.
 There are    68 symmetry adapted cartesian basis functions of A   symmetry.
 There are    68 symmetry adapted basis functions of A   symmetry.
    68 basis functions,   160 primitive gaussians,    68 cartesian basis functions
    24 alpha electrons       24 beta electrons
       nuclear repulsion energy       242.2422968948 Hartrees.
 IExCor=  402 DFT=T Ex+Corr=B3LYP ExCW=0 ScaHFX=  0.200000
 ScaDFX=  0.800000  0.720000  1.000000  0.810000 ScalE2=  1.000000  1.000000
 IRadAn=      0 IRanWt=     -1 IRanGd=            0 ICorTp=0 IEmpDi=  4
 NAtoms=   13 NActive=   13 NUniq=   13 SFac= 1.00D+00 NAtFMM=   60 NAOKFM=F Big=F
 Integral buffers will be    131072 words long.
 Raffenetti 2 integral format.
 Two-electron integral symmetry is turned on.
 Leave Link  301 at Thu Apr 14 11:02:36 2016, MaxMem=    33554432 cpu:         0.0
 (Enter /usr/local/gau/g09/l302.exe)
 NPDir=0 NMtPBC=     1 NCelOv=     1 NCel=       1 NClECP=     1 NCelD=      1
         NCelK=      1 NCelE2=     1 NClLst=     1 CellRange=     0.0.
 One-electron integrals computed using PRISM.
 NBasis=    68 RedAO= T EigKep=  3.90D-03  NBF=    68
 NBsUse=    68 1.00D-06 EigRej= -1.00D+00 NBFU=    68
 Precomputing XC quadrature grid using
 IXCGrd= 4 IRadAn=           0 IRanWt=          -1 IRanGd=           0 AccXCQ= 0.00D+00.
 Generated NRdTot=       0 NPtTot=           0 NUsed=           0 NTot=          32
 NSgBfM=    68    68    68    68    68 MxSgAt=    13 MxSgA2=    13.
 Leave Link  302 at Thu Apr 14 11:02:36 2016, MaxMem=    33554432 cpu:         0.2
 (Enter /usr/local/gau/g09/l303.exe)
 DipDrv:  MaxL=1.
 Leave Link  303 at Thu Apr 14 11:02:36 2016, MaxMem=    33554432 cpu:         0.0
 (Enter /usr/local/gau/g09/l401.exe)
 ExpMin= 1.61D-01 ExpMax= 5.48D+03 ExpMxC= 8.25D+02 IAcc=1 IRadAn=         1 AccDes= 0.00D+00
 Harris functional with IExCor=  402 and IRadAn=       1 diagonalized for initial guess.
 HarFok:  IExCor=  402 AccDes= 0.00D+00 IRadAn=         1 IDoV= 1 UseB2=F ITyADJ=14
 ICtDFT=  3500011 ScaDFX=  1.000000  1.000000  1.000000  1.000000
 FoFCou: FMM=F IPFlag=           0 FMFlag=      100000 FMFlg1=           0
         NFxFlg=           0 DoJE=T BraDBF=F KetDBF=T FulRan=T
         wScrn=  0.000000 ICntrl=     500 IOpCl=  0 I1Cent=   200000004 NGrid=           0
         NMat0=    1 NMatS0=      1 NMatT0=    0 NMatD0=    1 NMtDS0=    0 NMtDT0=    0
 Petite list used in FoFCou.
 Harris En= -323.460099142311    
 JPrj=0 DoOrth=F DoCkMO=F.
 Leave Link  401 at Thu Apr 14 11:02:37 2016, MaxMem=    33554432 cpu:         0.5
 (Enter /usr/local/gau/g09/l502.exe)
 Closed shell SCF:
 Using DIIS extrapolation, IDIIS=  1040.
 Integral symmetry usage will be decided dynamically.
 Keep R1 ints in memory in canonical form, NReq=3676491.
 IVT=       33364 IEndB=       33364 NGot=    33554432 MDV=    30768038
 LenX=    30768038 LenY=    30762973
 Requested convergence on RMS density matrix=1.00D-08 within 128 cycles.
 Requested convergence on MAX density matrix=1.00D-06.
 Requested convergence on             energy=1.00D-06.
 No special actions if energy rises.
 FoFCou: FMM=F IPFlag=           0 FMFlag=           0 FMFlg1=           0
         NFxFlg=           0 DoJE=F BraDBF=F KetDBF=F FulRan=T
         wScrn=  0.000000 ICntrl=     600 IOpCl=  0 I1Cent=           0 NGrid=           0
         NMat0=    1 NMatS0=   2346 NMatT0=    0 NMatD0=    1 NMtDS0=    0 NMtDT0=    0
 Symmetry not used in FoFCou.
 Integral accuracy reduced to 1.0D-05 until final iterations.

 Cycle   1  Pass 0  IDiag  1:
 E= -323.206218487877    
 DIIS: error= 4.03D-02 at cycle   1 NSaved=   1.
 NSaved= 1 IEnMin= 1 EnMin= -323.206218487877     IErMin= 1 ErrMin= 4.03D-02
 ErrMax= 4.03D-02  0.00D+00 EMaxC= 1.00D-01 BMatC= 2.14D-01 BMatP= 2.14D-01
 IDIUse=3 WtCom= 5.97D-01 WtEn= 4.03D-01
 Coeff-Com:  0.100D+01
 Coeff-En:   0.100D+01
 Coeff:      0.100D+01
 Gap=     0.162 Goal=   None    Shift=    0.000
 GapD=    0.162 DampG=1.000 DampE=0.500 DampFc=0.5000 IDamp=-1.
 Damping current iteration by 5.00D-01
 RMSDP=1.86D-02 MaxDP=3.55D-01              OVMax= 2.19D-01

 Cycle   2  Pass 0  IDiag  1:
 E= -323.248228756420     Delta-E=       -0.042010268543 Rises=F Damp=T
 DIIS: error= 1.98D-02 at cycle   2 NSaved=   2.
 NSaved= 2 IEnMin= 2 EnMin= -323.248228756420     IErMin= 2 ErrMin= 1.98D-02
 ErrMax= 1.98D-02  0.00D+00 EMaxC= 1.00D-01 BMatC= 3.93D-02 BMatP= 2.14D-01
 IDIUse=3 WtCom= 8.02D-01 WtEn= 1.98D-01
 Coeff-Com:  0.259D+00 0.741D+00
 Coeff-En:   0.393D+00 0.607D+00
 Coeff:      0.285D+00 0.715D+00
 Gap=     0.171 Goal=   None    Shift=    0.000
 RMSDP=5.89D-03 MaxDP=1.05D-01 DE=-4.20D-02 OVMax= 2.01D-01

 Cycle   3  Pass 0  IDiag  1:
 E= -323.358345828186     Delta-E=       -0.110117071766 Rises=F Damp=F
 DIIS: error= 2.57D-02 at cycle   3 NSaved=   3.
 NSaved= 3 IEnMin= 3 EnMin= -323.358345828186     IErMin= 2 ErrMin= 1.98D-02
 ErrMax= 2.57D-02  0.00D+00 EMaxC= 1.00D-01 BMatC= 4.78D-02 BMatP= 3.93D-02
 IDIUse=2 WtCom= 0.00D+00 WtEn= 1.00D+00
 Coeff-En:   0.000D+00 0.000D+00 0.100D+01
 Coeff:      0.000D+00 0.000D+00 0.100D+01
 Gap=     0.189 Goal=   None    Shift=    0.000
 RMSDP=1.40D-02 MaxDP=1.72D-01 DE=-1.10D-01 OVMax= 3.78D-01

 Cycle   4  Pass 0  IDiag  1:
 E= -322.932628411556     Delta-E=        0.425717416630 Rises=F Damp=F
 DIIS: error= 8.59D-02 at cycle   4 NSaved=   4.
 NSaved= 4 IEnMin= 3 EnMin= -323.358345828186     IErMin= 2 ErrMin= 1.98D-02
 ErrMax= 8.59D-02  0.00D+00 EMaxC= 1.00D-01 BMatC= 5.18D-01 BMatP= 3.93D-02
 IDIUse=2 WtCom= 0.00D+00 WtEn= 1.00D+00
 Coeff-En:   0.000D+00 0.000D+00 0.855D+00 0.145D+00
 Coeff:      0.000D+00 0.000D+00 0.855D+00 0.145D+00
 Gap=     0.178 Goal=   None    Shift=    0.000
 RMSDP=7.92D-03 MaxDP=1.11D-01 DE= 4.26D-01 OVMax= 2.07D-01

 Cycle   5  Pass 0  IDiag  1:
 E= -323.358109987986     Delta-E=       -0.425481576430 Rises=F Damp=F
 DIIS: error= 2.59D-02 at cycle   5 NSaved=   5.
 NSaved= 5 IEnMin= 3 EnMin= -323.358345828186     IErMin= 2 ErrMin= 1.98D-02
 ErrMax= 2.59D-02  0.00D+00 EMaxC= 1.00D-01 BMatC= 4.95D-02 BMatP= 3.93D-02
 IDIUse=2 WtCom= 0.00D+00 WtEn= 1.00D+00
 Coeff-En:   0.000D+00 0.000D+00 0.501D+00 0.000D+00 0.499D+00
 Coeff:      0.000D+00 0.000D+00 0.501D+00 0.000D+00 0.499D+00
 Gap=     0.164 Goal=   None    Shift=    0.000
 RMSDP=3.57D-03 MaxDP=4.46D-02 DE=-4.25D-01 OVMax= 9.77D-02

 Cycle   6  Pass 0  IDiag  1:
 E= -323.402598610989     Delta-E=       -0.044488623003 Rises=F Damp=F
 DIIS: error= 3.36D-03 at cycle   6 NSaved=   6.
 NSaved= 6 IEnMin= 6 EnMin= -323.402598610989     IErMin= 6 ErrMin= 3.36D-03
 ErrMax= 3.36D-03  0.00D+00 EMaxC= 1.00D-01 BMatC= 6.70D-04 BMatP= 3.93D-02
 IDIUse=3 WtCom= 9.66D-01 WtEn= 3.36D-02
 Coeff-Com: -0.731D-02 0.197D-01 0.270D+00-0.614D-01 0.460D+00 0.319D+00
 Coeff-En:   0.000D+00 0.000D+00 0.000D+00 0.000D+00 0.000D+00 0.100D+01
 Coeff:     -0.706D-02 0.190D-01 0.261D+00-0.593D-01 0.445D+00 0.342D+00
 Gap=     0.162 Goal=   None    Shift=    0.000
 RMSDP=6.25D-04 MaxDP=1.05D-02 DE=-4.45D-02 OVMax= 2.04D-02

 Cycle   7  Pass 0  IDiag  1:
 E= -323.403232983203     Delta-E=       -0.000634372214 Rises=F Damp=F
 DIIS: error= 1.37D-03 at cycle   7 NSaved=   7.
 NSaved= 7 IEnMin= 7 EnMin= -323.403232983203     IErMin= 7 ErrMin= 1.37D-03
 ErrMax= 1.37D-03  0.00D+00 EMaxC= 1.00D-01 BMatC= 1.05D-04 BMatP= 6.70D-04
 IDIUse=3 WtCom= 9.86D-01 WtEn= 1.37D-02
 Coeff-Com: -0.318D-02 0.133D-03 0.755D-01-0.190D-01 0.123D+00 0.225D+00
 Coeff-Com:  0.598D+00
 Coeff-En:   0.000D+00 0.000D+00 0.000D+00 0.000D+00 0.000D+00 0.164D+00
 Coeff-En:   0.836D+00
 Coeff:     -0.314D-02 0.131D-03 0.745D-01-0.187D-01 0.122D+00 0.224D+00
 Coeff:      0.602D+00
 Gap=     0.161 Goal=   None    Shift=    0.000
 RMSDP=1.49D-04 MaxDP=2.54D-03 DE=-6.34D-04 OVMax= 5.33D-03

 Cycle   8  Pass 0  IDiag  1:
 E= -323.403338237435     Delta-E=       -0.000105254232 Rises=F Damp=F
 DIIS: error= 2.29D-04 at cycle   8 NSaved=   8.
 NSaved= 8 IEnMin= 8 EnMin= -323.403338237435     IErMin= 8 ErrMin= 2.29D-04
 ErrMax= 2.29D-04  0.00D+00 EMaxC= 1.00D-01 BMatC= 3.97D-06 BMatP= 1.05D-04
 IDIUse=3 WtCom= 9.98D-01 WtEn= 2.29D-03
 Coeff-Com:  0.228D-03-0.162D-02 0.518D-02-0.117D-02-0.487D-03 0.742D-01
 Coeff-Com:  0.276D+00 0.648D+00
 Coeff-En:   0.000D+00 0.000D+00 0.000D+00 0.000D+00 0.000D+00 0.000D+00
 Coeff-En:   0.000D+00 0.100D+01
 Coeff:      0.228D-03-0.162D-02 0.516D-02-0.117D-02-0.486D-03 0.741D-01
 Coeff:      0.275D+00 0.649D+00
 Gap=     0.162 Goal=   None    Shift=    0.000
 RMSDP=3.86D-05 MaxDP=4.47D-04 DE=-1.05D-04 OVMax= 7.72D-04

 Cycle   9  Pass 0  IDiag  1:
 E= -323.403341996531     Delta-E=       -0.000003759096 Rises=F Damp=F
 DIIS: error= 4.83D-05 at cycle   9 NSaved=   9.
 NSaved= 9 IEnMin= 9 EnMin= -323.403341996531     IErMin= 9 ErrMin= 4.83D-05
 ErrMax= 4.83D-05  0.00D+00 EMaxC= 1.00D-01 BMatC= 1.45D-07 BMatP= 3.97D-06
 IDIUse=1 WtCom= 1.00D+00 WtEn= 0.00D+00
 Coeff-Com:  0.192D-03-0.146D-02-0.911D-03 0.406D-03-0.622D-02 0.312D-01
 Coeff-Com:  0.126D+00 0.348D+00 0.503D+00
 Coeff:      0.192D-03-0.146D-02-0.911D-03 0.406D-03-0.622D-02 0.312D-01
 Coeff:      0.126D+00 0.348D+00 0.503D+00
 Gap=     0.162 Goal=   None    Shift=    0.000
 RMSDP=6.23D-06 MaxDP=7.66D-05 DE=-3.76D-06 OVMax= 1.25D-04

 Initial convergence to 1.0D-05 achieved.  Increase integral accuracy.
 Cycle  10  Pass 1  IDiag  1:
 E= -323.403379942050     Delta-E=       -0.000037945519 Rises=F Damp=F
 DIIS: error= 2.20D-05 at cycle   1 NSaved=   1.
 NSaved= 1 IEnMin= 1 EnMin= -323.403379942050     IErMin= 1 ErrMin= 2.20D-05
 ErrMax= 2.20D-05  0.00D+00 EMaxC= 1.00D-01 BMatC= 4.09D-08 BMatP= 4.09D-08
 IDIUse=1 WtCom= 1.00D+00 WtEn= 0.00D+00
 Coeff-Com:  0.100D+01
 Coeff:      0.100D+01
 Gap=     0.162 Goal=   None    Shift=    0.000
 RMSDP=6.23D-06 MaxDP=7.66D-05 DE=-3.79D-05 OVMax= 3.65D-04

 Cycle  11  Pass 1  IDiag  1:
 E= -323.403379748809     Delta-E=        0.000000193241 Rises=F Damp=F
 DIIS: error= 6.83D-05 at cycle   2 NSaved=   2.
 NSaved= 2 IEnMin= 1 EnMin= -323.403379942050     IErMin= 1 ErrMin= 2.20D-05
 ErrMax= 6.83D-05  0.00D+00 EMaxC= 1.00D-01 BMatC= 2.38D-07 BMatP= 4.09D-08
 IDIUse=1 WtCom= 1.00D+00 WtEn= 0.00D+00
 Coeff-Com:  0.720D+00 0.280D+00
 Coeff:      0.720D+00 0.280D+00
 Gap=     0.162 Goal=   None    Shift=    0.000
 RMSDP=8.98D-06 MaxDP=1.22D-04 DE= 1.93D-07 OVMax= 3.02D-04

 Cycle  12  Pass 1  IDiag  1:
 E= -323.403379990075     Delta-E=       -0.000000241267 Rises=F Damp=F
 DIIS: error= 8.98D-06 at cycle   3 NSaved=   3.
 NSaved= 3 IEnMin= 3 EnMin= -323.403379990075     IErMin= 3 ErrMin= 8.98D-06
 ErrMax= 8.98D-06  0.00D+00 EMaxC= 1.00D-01 BMatC= 5.66D-09 BMatP= 4.09D-08
 IDIUse=1 WtCom= 1.00D+00 WtEn= 0.00D+00
 Coeff-Com:  0.257D+00 0.155D+00 0.588D+00
 Coeff:      0.257D+00 0.155D+00 0.588D+00
 Gap=     0.162 Goal=   None    Shift=    0.000
 RMSDP=1.46D-06 MaxDP=1.81D-05 DE=-2.41D-07 OVMax= 2.53D-05

 Cycle  13  Pass 1  IDiag  1:
 E= -323.403379993776     Delta-E=       -0.000000003701 Rises=F Damp=F
 DIIS: error= 5.20D-06 at cycle   4 NSaved=   4.
 NSaved= 4 IEnMin= 4 EnMin= -323.403379993776     IErMin= 4 ErrMin= 5.20D-06
 ErrMax= 5.20D-06  0.00D+00 EMaxC= 1.00D-01 BMatC= 1.64D-09 BMatP= 5.66D-09
 IDIUse=1 WtCom= 1.00D+00 WtEn= 0.00D+00
 Coeff-Com:  0.105D-01 0.482D-01 0.393D+00 0.549D+00
 Coeff:      0.105D-01 0.482D-01 0.393D+00 0.549D+00
 Gap=     0.162 Goal=   None    Shift=    0.000
 RMSDP=7.32D-07 MaxDP=7.88D-06 DE=-3.70D-09 OVMax= 1.22D-05

 Cycle  14  Pass 1  IDiag  1:
 E= -323.403379995031     Delta-E=       -0.000000001255 Rises=F Damp=F
 DIIS: error= 1.54D-06 at cycle   5 NSaved=   5.
 NSaved= 5 IEnMin= 5 EnMin= -323.403379995031     IErMin= 5 ErrMin= 1.54D-06
 ErrMax= 1.54D-06  0.00D+00 EMaxC= 1.00D-01 BMatC= 1.97D-10 BMatP= 1.64D-09
 IDIUse=1 WtCom= 1.00D+00 WtEn= 0.00D+00
 Coeff-Com: -0.158D-01 0.175D-01 0.182D+00 0.341D+00 0.475D+00
 Coeff:     -0.158D-01 0.175D-01 0.182D+00 0.341D+00 0.475D+00
 Gap=     0.162 Goal=   None    Shift=    0.000
 RMSDP=2.40D-07 MaxDP=3.22D-06 DE=-1.26D-09 OVMax= 4.70D-06

 Cycle  15  Pass 1  IDiag  1:
 E= -323.403379995207     Delta-E=       -0.000000000176 Rises=F Damp=F
 DIIS: error= 2.91D-07 at cycle   6 NSaved=   6.
 NSaved= 6 IEnMin= 6 EnMin= -323.403379995207     IErMin= 6 ErrMin= 2.91D-07
 ErrMax= 2.91D-07  0.00D+00 EMaxC= 1.00D-01 BMatC= 7.43D-12 BMatP= 1.97D-10
 IDIUse=1 WtCom= 1.00D+00 WtEn= 0.00D+00
 Coeff-Com: -0.783D-02 0.461D-02 0.351D-01 0.925D-01 0.189D+00 0.687D+00
 Coeff:     -0.783D-02 0.461D-02 0.351D-01 0.925D-01 0.189D+00 0.687D+00
 Gap=     0.162 Goal=   None    Shift=    0.000
 RMSDP=6.92D-08 MaxDP=9.52D-07 DE=-1.76D-10 OVMax= 1.94D-06

 Cycle  16  Pass 1  IDiag  1:
 E= -323.403379995215     Delta-E=       -0.000000000008 Rises=F Damp=F
 DIIS: error= 1.12D-07 at cycle   7 NSaved=   7.
 NSaved= 7 IEnMin= 7 EnMin= -323.403379995215     IErMin= 7 ErrMin= 1.12D-07
 ErrMax= 1.12D-07  0.00D+00 EMaxC= 1.00D-01 BMatC= 1.13D-12 BMatP= 7.43D-12
 IDIUse=1 WtCom= 1.00D+00 WtEn= 0.00D+00
 Coeff-Com: -0.212D-02 0.888D-03-0.195D-02 0.107D-01 0.495D-01 0.373D+00
 Coeff-Com:  0.570D+00
 Coeff:     -0.212D-02 0.888D-03-0.195D-02 0.107D-01 0.495D-01 0.373D+00
 Coeff:      0.570D+00
 Gap=     0.162 Goal=   None    Shift=    0.000
 RMSDP=2.95D-08 MaxDP=2.70D-07 DE=-7.73D-12 OVMax= 7.13D-07

 Cycle  17  Pass 1  IDiag  1:
 E= -323.403379995216     Delta-E=       -0.000000000001 Rises=F Damp=F
 DIIS: error= 2.92D-08 at cycle   8 NSaved=   8.
 NSaved= 8 IEnMin= 8 EnMin= -323.403379995216     IErMin= 8 ErrMin= 2.92D-08
 ErrMax= 2.92D-08  0.00D+00 EMaxC= 1.00D-01 BMatC= 9.23D-14 BMatP= 1.13D-12
 IDIUse=1 WtCom= 1.00D+00 WtEn= 0.00D+00
 Coeff-Com:  0.332D-03-0.444D-03-0.640D-02-0.112D-01-0.649D-02 0.311D-01
 Coeff-Com:  0.229D+00 0.764D+00
 Coeff:      0.332D-03-0.444D-03-0.640D-02-0.112D-01-0.649D-02 0.311D-01
 Coeff:      0.229D+00 0.764D+00
 Gap=     0.162 Goal=   None    Shift=    0.000
 RMSDP=1.31D-08 MaxDP=1.22D-07 DE=-1.02D-12 OVMax= 3.76D-07

 Cycle  18  Pass 1  IDiag  1:
 E= -323.403379995217     Delta-E=       -0.000000000001 Rises=F Damp=F
 DIIS: error= 9.38D-09 at cycle   9 NSaved=   9.
 NSaved= 9 IEnMin= 9 EnMin= -323.403379995217     IErMin= 9 ErrMin= 9.38D-09
 ErrMax= 9.38D-09  0.00D+00 EMaxC= 1.00D-01 BMatC= 1.18D-14 BMatP= 9.23D-14
 IDIUse=1 WtCom= 1.00D+00 WtEn= 0.00D+00
 Coeff-Com:  0.362D-03-0.333D-03-0.268D-02-0.641D-02-0.722D-02-0.236D-01
 Coeff-Com:  0.598D-01 0.328D+00 0.652D+00
 Coeff:      0.362D-03-0.333D-03-0.268D-02-0.641D-02-0.722D-02-0.236D-01
 Coeff:      0.598D-01 0.328D+00 0.652D+00
 Gap=     0.162 Goal=   None    Shift=    0.000
 RMSDP=3.93D-09 MaxDP=3.58D-08 DE=-1.36D-12 OVMax= 1.09D-07

 SCF Done:  E(RB3LYP) =  -323.403379995     A.U. after   18 cycles
            NFock= 18  Conv=0.39D-08     -V/T= 2.0058
 KE= 3.215322103366D+02 PE=-1.241472159934D+03 EE= 3.542942727075D+02
 Leave Link  502 at Thu Apr 14 11:03:12 2016, MaxMem=    33554432 cpu:        14.1
 (Enter /usr/local/gau/g09/l801.exe)
 DoSCS=F DFT=T ScalE2(SS,OS)=  1.000000  1.000000
 Range of M.O.s used for correlation:     1    68
 NBasis=    68 NAE=    24 NBE=    24 NFC=     0 NFV=     0
 NROrb=     68 NOA=    24 NOB=    24 NVA=    44 NVB=    44
 Leave Link  801 at Thu Apr 14 11:03:12 2016, MaxMem=    33554432 cpu:         0.0
 (Enter /usr/local/gau/g09/l1101.exe)
 Using compressed storage, NAtomX=    13.
 Will process     14 centers per pass.
 Leave Link 1101 at Thu Apr 14 11:03:12 2016, MaxMem=    33554432 cpu:         0.1
 (Enter /usr/local/gau/g09/l1102.exe)
 Symmetrizing basis deriv contribution to polar:
 IMax=3 JMax=2 DiffMx= 0.00D+00
 Leave Link 1102 at Thu Apr 14 11:03:12 2016, MaxMem=    33554432 cpu:         0.0
 (Enter /usr/local/gau/g09/l1110.exe)
 Forming Gx(P) for the SCF density, NAtomX=    13.
 Integral derivatives from FoFJK, PRISM(SPDF).
 Do as many integral derivatives as possible in FoFJK.
 G2DrvN: MDV=      33554224.
 G2DrvN: will do    14 centers at a time, making    1 passes.
 Calling FoFCou, ICntrl=  3107 FMM=F I1Cent=   0 AccDes= 0.00D+00.
 FoFJK:  IHMeth= 1 ICntrl=    3107 DoSepK=F KAlg= 0 I1Cent=   0 FoldK=F
 IRaf=         0 NMat=   1 IRICut=       1 DoRegI=T DoRafI=F ISym2E= 0.
 FoFCou: FMM=F IPFlag=           0 FMFlag=      100000 FMFlg1=           0
         NFxFlg=           0 DoJE=F BraDBF=F KetDBF=F FulRan=T
         wScrn=  0.000000 ICntrl=    3107 IOpCl=  0 I1Cent=           0 NGrid=           0
         NMat0=    1 NMatS0=      1 NMatT0=    0 NMatD0=    1 NMtDS0=    0 NMtDT0=    0
 Symmetry not used in FoFCou.
 End of G2Drv F.D. properties file   721 does not exist.
 End of G2Drv F.D. properties file   722 does not exist.
 End of G2Drv F.D. properties file   788 does not exist.
 Leave Link 1110 at Thu Apr 14 11:04:12 2016, MaxMem=    33554432 cpu:        24.4
 (Enter /usr/local/gau/g09/l1002.exe)
 Minotr:  Closed shell wavefunction.
          IDoAtm=1111111111111
          Direct CPHF calculation.
          Differentiating once with respect to nuclear coordinates.
          Requested convergence is 1.0D-08 RMS, and 1.0D-07 maximum.
          Secondary convergence is 1.0D-12 RMS, and 1.0D-12 maximum.
          NewPWx=T KeepS1=F KeepF1=F KeepIn=T MapXYZ=F SortEE=F KeepMc=T.
          MDV=      33554230 using IRadAn=       2.
 Generate precomputed XC quadrature information.
 Keep R1 ints in memory in canonical form, NReq=3645297.
 FoFCou: FMM=F IPFlag=           0 FMFlag=           0 FMFlg1=           0
         NFxFlg=           0 DoJE=F BraDBF=F KetDBF=F FulRan=T
         wScrn=  0.000000 ICntrl=     600 IOpCl=  0 I1Cent=           0 NGrid=           0
         NMat0=    1 NMatS0=   2346 NMatT0=    0 NMatD0=    1 NMtDS0=    0 NMtDT0=    0
 Symmetry not used in FoFCou.
          Solving linear equations simultaneously, MaxMat=       0.
          There are    42 degrees of freedom in the 1st order CPHF.  IDoFFX=6 NUNeed=     0.
     36 vectors produced by pass  0 Test12= 2.51D-15 2.38D-09 XBig12= 1.85D-01 1.30D-01.
 AX will form    36 AO Fock derivatives at one time.
     36 vectors produced by pass  1 Test12= 2.51D-15 2.38D-09 XBig12= 2.57D-02 4.40D-02.
     36 vectors produced by pass  2 Test12= 2.51D-15 2.38D-09 XBig12= 9.12D-05 1.72D-03.
     36 vectors produced by pass  3 Test12= 2.51D-15 2.38D-09 XBig12= 1.58D-07 7.76D-05.
     36 vectors produced by pass  4 Test12= 2.51D-15 2.38D-09 XBig12= 1.43D-10 1.96D-06.
     20 vectors produced by pass  5 Test12= 2.51D-15 2.38D-09 XBig12= 8.42D-14 4.14D-08.
 InvSVY:  IOpt=1 It=  1 EMax= 1.78D-15
 Solved reduced A of dimension   200 with    36 vectors.
 End of Minotr F.D. properties file   721 does not exist.
 End of Minotr F.D. properties file   722 does not exist.
 End of Minotr F.D. properties file   788 does not exist.
 Leave Link 1002 at Thu Apr 14 11:04:46 2016, MaxMem=    33554432 cpu:        15.0
 (Enter /usr/local/gau/g09/l601.exe)
 Copying SCF densities to generalized density rwf, IOpCl= 0 IROHF=0.

 **********************************************************************

            Population analysis using the SCF density.

 **********************************************************************

 Orbital symmetries:
       Occupied  (A) (A) (A) (A) (A) (A) (A) (A) (A) (A) (A) (A)
                 (A) (A) (A) (A) (A) (A) (A) (A) (A) (A) (A) (A)
       Virtual   (A) (A) (A) (A) (A) (A) (A) (A) (A) (A) (A) (A)
                 (A) (A) (A) (A) (A) (A) (A) (A) (A) (A) (A) (A)
                 (A) (A) (A) (A) (A) (A) (A) (A) (A) (A) (A) (A)
                 (A) (A) (A) (A) (A) (A) (A) (A)
 The electronic state is 1-A.
 Alpha  occ. eigenvalues --  -19.16697 -19.14781 -14.36634 -10.30153 -10.25174
 Alpha  occ. eigenvalues --  -10.19614  -1.06456  -1.00364  -0.94872  -0.76593
 Alpha  occ. eigenvalues --   -0.70974  -0.60242  -0.58672  -0.51743  -0.46895
 Alpha  occ. eigenvalues --   -0.44741  -0.42594  -0.40507  -0.39390  -0.34939
 Alpha  occ. eigenvalues --   -0.32320  -0.30759  -0.28982  -0.16979
 Alpha virt. eigenvalues --   -0.00822   0.02237   0.06417   0.09385   0.10596
 Alpha virt. eigenvalues --    0.14408   0.16113   0.17017   0.19300   0.21729
 Alpha virt. eigenvalues --    0.25671   0.33300   0.38936   0.52731   0.54624
 Alpha virt. eigenvalues --    0.55236   0.59155   0.62252   0.65207   0.65998
 Alpha virt. eigenvalues --    0.71475   0.74637   0.76163   0.80685   0.83577
 Alpha virt. eigenvalues --    0.85518   0.87137   0.90639   0.91241   0.93519
 Alpha virt. eigenvalues --    0.95343   0.97327   1.00190   1.01944   1.06208
 Alpha virt. eigenvalues --    1.06829   1.14439   1.22615   1.24257   1.39572
 Alpha virt. eigenvalues --    1.42132   1.52674   1.84004   1.96313
          Condensed to atoms (all electrons):
               1          2          3          4          5          6
     1  N    7.240831   0.329656   0.162751  -0.000026  -0.063493  -0.110782
     2  H    0.329656   0.350089  -0.019062   0.000003  -0.004529   0.004402
     3  C    0.162751  -0.019062   5.555699   0.001440   0.335722   0.421258
     4  H   -0.000026   0.000003   0.001440   0.420205   0.000172  -0.038771
     5  C   -0.063493  -0.004529   0.335722   0.000172   5.077565   0.003132
     6  C   -0.110782   0.004402   0.421258  -0.038771   0.003132   5.027994
     7  H    0.002531   0.000812  -0.049337  -0.000059   0.369079  -0.001349
     8  H    0.003665  -0.000004  -0.030358  -0.000289   0.373029  -0.002112
     9  H    0.000512   0.002369  -0.049954   0.000120   0.369369  -0.000347
    10  O   -0.010325   0.000132  -0.138637   0.003691   0.001958   0.185553
    11  H    0.302960  -0.015443  -0.034978  -0.000002   0.004319  -0.006054
    12  O    0.001293   0.000001  -0.085961   0.235769  -0.005051   0.202188
    13  H   -0.011567   0.001992  -0.221368  -0.000977   0.002202  -0.018557
               7          8          9         10         11         12
     1  N    0.002531   0.003665   0.000512  -0.010325   0.302960   0.001293
     2  H    0.000812  -0.000004   0.002369   0.000132  -0.015443   0.000001
     3  C   -0.049337  -0.030358  -0.049954  -0.138637  -0.034978  -0.085961
     4  H   -0.000059  -0.000289   0.000120   0.003691  -0.000002   0.235769
     5  C    0.369079   0.373029   0.369369   0.001958   0.004319  -0.005051
     6  C   -0.001349  -0.002112  -0.000347   0.185553  -0.006054   0.202188
     7  H    0.593926  -0.023444  -0.046245  -0.000020  -0.000107   0.000092
     8  H   -0.023444   0.508640  -0.023513   0.000129  -0.000182   0.008321
     9  H   -0.046245  -0.023513   0.599768  -0.000012  -0.000009   0.000306
    10  O   -0.000020   0.000129  -0.000012   8.370826   0.003547  -0.080831
    11  H   -0.000107  -0.000182  -0.000009   0.003547   0.370313   0.000067
    12  O    0.000092   0.008321   0.000306  -0.080831   0.000067   8.299518
    13  H   -0.000345  -0.000183  -0.000389   0.182503   0.015054   0.021661
              13
     1  N   -0.011567
     2  H    0.001992
     3  C   -0.221368
     4  H   -0.000977
     5  C    0.002202
     6  C   -0.018557
     7  H   -0.000345
     8  H   -0.000183
     9  H   -0.000389
    10  O    0.182503
    11  H    0.015054
    12  O    0.021661
    13  H    0.666458
 Mulliken charges:
               1
     1  N   -0.848005
     2  H    0.349582
     3  C    0.152786
     4  H    0.378725
     5  C   -0.463472
     6  C    0.333446
     7  H    0.154465
     8  H    0.186301
     9  H    0.148026
    10  O   -0.518513
    11  H    0.360516
    12  O   -0.597373
    13  H    0.363516
 Sum of Mulliken charges =   0.00000
 Mulliken charges with hydrogens summed into heavy atoms:
               1
     1  N   -0.137907
     3  C    0.152786
     5  C    0.025320
     6  C    0.696962
    10  O   -0.518513
    12  O   -0.218648
 APT charges:
               1
     1  N   -1.334312
     2  H    0.777410
     3  C    0.182811
     4  H    0.665167
     5  C   -1.236441
     6  C    0.020081
     7  H    0.438107
     8  H    0.367155
     9  H    0.445044
    10  O   -0.343604
    11  H    0.535247
    12  O   -0.731217
    13  H    0.214553
 Sum of APT charges =   0.00000
 APT charges with hydrogens summed into heavy atoms:
               1
     1  N   -0.021655
     3  C    0.182811
     5  C    0.013865
     6  C    0.234634
    10  O   -0.343604
    12  O   -0.066050
 Electronic spatial extent (au):  <R**2>=            633.4070
 Charge=              0.0000 electrons
 Dipole moment (field-independent basis, Debye):
    X=              3.8307    Y=              0.1716    Z=              1.7618  Tot=              4.2199
 Quadrupole moment (field-independent basis, Debye-Ang):
   XX=            -33.0446   YY=            -35.2318   ZZ=            -38.2796
   XY=             -6.1269   XZ=             -2.9216   YZ=              2.0513
 Traceless Quadrupole moment (field-independent basis, Debye-Ang):
   XX=              2.4741   YY=              0.2869   ZZ=             -2.7609
   XY=             -6.1269   XZ=             -2.9216   YZ=              2.0513
 Octapole moment (field-independent basis, Debye-Ang**2):
  XXX=              6.6922  YYY=             -6.9998  ZZZ=              1.3991  XYY=              8.4666
  XXY=              5.3047  XXZ=              9.4857  XZZ=             -4.9708  YZZ=              2.1763
  YYZ=              3.7657  XYZ=             -6.0030
 Hexadecapole moment (field-independent basis, Debye-Ang**3):
 XXXX=           -382.0969 YYYY=           -266.2471 ZZZZ=            -44.1646 XXXY=            -46.5161
 XXXZ=            -14.9614 YYYX=            -25.8425 YYYZ=              2.8818 ZZZX=             -2.2327
 ZZZY=              0.8819 XXYY=           -117.4216 XXZZ=            -79.0515 YYZZ=            -56.9704
 XXYZ=              8.2957 YYXZ=             -4.8025 ZZXY=             -2.2993
 N-N= 2.422422968948D+02 E-N=-1.241472158607D+03  KE= 3.215322103366D+02
  Exact polarizability:   0.000   0.000   0.000   0.000   0.000   0.000
 Approx polarizability: 141.560   4.591  70.014  -4.313  -0.610  32.969
 No NMR shielding tensors so no spin-rotation constants.
 Leave Link  601 at Thu Apr 14 11:04:46 2016, MaxMem=    33554432 cpu:         0.1
 (Enter /usr/local/gau/g09/l701.exe)
 Compute integral second derivatives.
 ... and contract with generalized density number  0.
 Leave Link  701 at Thu Apr 14 11:04:46 2016, MaxMem=    33554432 cpu:         0.1
 (Enter /usr/local/gau/g09/l702.exe)
 L702 exits ... SP integral derivatives will be done elsewhere.
 Leave Link  702 at Thu Apr 14 11:04:46 2016, MaxMem=    33554432 cpu:         0.0
 (Enter /usr/local/gau/g09/l703.exe)
 Compute integral second derivatives, UseDBF=F ICtDFT=           0.
 Integral derivatives from FoFJK, PRISM(SPDF).
 Calling FoFJK, ICntrl=    100147 FMM=F ISym2X=0 I1Cent= 0 IOpClX= 0 NMat=1 NMatS=1 NMatT=0.
 FoFJK:  IHMeth= 1 ICntrl=  100147 DoSepK=F KAlg= 0 I1Cent=   0 FoldK=F
 IRaf=         0 NMat=   1 IRICut=       1 DoRegI=T DoRafI=F ISym2E= 0.
 FoFCou: FMM=F IPFlag=           0 FMFlag=      100000 FMFlg1=         800
         NFxFlg=           0 DoJE=F BraDBF=F KetDBF=F FulRan=T
         wScrn=  0.000000 ICntrl=  100147 IOpCl=  0 I1Cent=           0 NGrid=           0
         NMat0=    1 NMatS0=      1 NMatT0=    0 NMatD0=    1 NMtDS0=    0 NMtDT0=    0
 Symmetry not used in FoFCou.
 Leave Link  703 at Thu Apr 14 11:05:47 2016, MaxMem=    33554432 cpu:        24.2
 (Enter /usr/local/gau/g09/l716.exe)
 Dipole        = 1.50711257D+00 6.75266794D-02 6.93147116D-01
 Polarizability= 0.00000000D+00 0.00000000D+00 0.00000000D+00
                 0.00000000D+00 0.00000000D+00 0.00000000D+00
 ***** Axes restored to original set *****
 -------------------------------------------------------------------
 Center     Atomic                   Forces (Hartrees/Bohr)
 Number     Number              X              Y              Z
 -------------------------------------------------------------------
      1        7           0.015851785    0.021445680   -0.001662461
      2        1           0.000619778    0.000439380    0.000918115
      3        6          -0.067575092   -0.072506874   -0.010648878
      4        1          -0.000308293    0.003130668    0.000077419
      5        6          -0.003637969    0.001085153    0.005567334
      6        6           0.044765368   -0.026381078   -0.010806542
      7        1           0.000701320   -0.001042415    0.000963675
      8        1          -0.000915770    0.000474211    0.000008861
      9        1          -0.000802141    0.000951824   -0.001223009
     10        8           0.074529507    0.000436752    0.009609888
     11        1           0.012138700    0.019134224   -0.005132594
     12        8           0.019678827    0.000537833    0.002116247
     13        1          -0.095046021    0.052294643    0.010211945
 -------------------------------------------------------------------
 Cartesian Forces:  Max     0.095046021 RMS     0.028636899
 Force constants in Cartesian coordinates: 
                1             2             3             4             5 
      1  0.876419D+00
      2 -0.118873D-01  0.715919D+00
      3 -0.147984D-01 -0.417296D-01  0.237430D-02
      4 -0.475551D+00 -0.262077D-01  0.315729D-01  0.489708D+00
      5 -0.237691D-01 -0.643510D-01  0.551059D-02  0.316943D-01  0.666391D-01
      6  0.473787D-01  0.537289D-02  0.201844D-02 -0.359365D-01 -0.510855D-02
      7 -0.173144D+00 -0.767546D-01 -0.205749D-02 -0.856399D-02 -0.406360D-01
      8 -0.133400D+00 -0.297633D+00  0.649197D-02 -0.538305D-03 -0.100566D-02
      9 -0.527411D-02 -0.885194D-02 -0.954461D-02  0.170446D-02  0.260255D-02
     10 -0.107022D-02  0.245346D-02  0.274117D-02 -0.238547D-03 -0.456722D-03
     11 -0.323654D-04 -0.489851D-03  0.136260D-02  0.265021D-03 -0.168303D-03
     12  0.161312D-02 -0.246378D-02 -0.128913D-03  0.427217D-03  0.300452D-03
     13  0.110644D-01 -0.204947D-01  0.715363D-03  0.211852D-02 -0.401434D-03
     14  0.251085D-01 -0.368574D-01  0.263126D-04  0.150484D-02  0.227701D-02
     15 -0.184482D-02 -0.115679D-02  0.200075D-02 -0.394637D-03  0.377558D-03
     16 -0.210854D-01  0.158893D-01  0.306015D-02  0.565236D-03  0.138235D-02
     17 -0.409640D-01 -0.142402D-01 -0.165944D-03  0.466976D-02 -0.703306D-02
     18  0.692867D-03  0.248818D-02 -0.102548D-01  0.582036D-03  0.632811D-03
     19  0.215839D-02 -0.846568D-03  0.182666D-02  0.301106D-03  0.243855D-03
     20 -0.105098D-02  0.264756D-02 -0.169113D-02 -0.401782D-03 -0.635401D-03
     21  0.100397D-02  0.652336D-03 -0.113415D-04 -0.302315D-03  0.814568D-03
     22 -0.355391D-02  0.422907D-02 -0.198680D-03 -0.370481D-03  0.243889D-03
     23  0.474425D-02 -0.335597D-02  0.192109D-03  0.537224D-03  0.456815D-03
     24  0.157087D-03 -0.833745D-04  0.137354D-02 -0.888732D-04 -0.182895D-04
     25  0.257550D-02 -0.833689D-03 -0.171189D-02  0.349941D-03  0.345227D-03
     26 -0.111930D-02  0.258476D-02  0.150502D-02 -0.791578D-03 -0.582232D-03
     27 -0.963975D-03 -0.606106D-03  0.277069D-03  0.397561D-03 -0.996249D-03
     28  0.645568D-02 -0.762606D-02 -0.110084D-02  0.152823D-02  0.120544D-02
     29 -0.397507D-02  0.230679D-01  0.248116D-02 -0.206806D-02  0.178176D-02
     30  0.123518D-02 -0.137759D-02 -0.849890D-03  0.107071D-03 -0.684291D-04
     31 -0.189611D+00  0.169119D+00 -0.187077D-01 -0.864994D-02  0.312789D-01
     32  0.180559D+00 -0.338175D+00  0.329433D-01 -0.728042D-02  0.794714D-02
     33 -0.307579D-01  0.455907D-01 -0.852095D-02  0.317630D-02 -0.309417D-02
     34 -0.544231D-02 -0.547395D-02 -0.358839D-02  0.118229D-02 -0.140297D-02
     35 -0.548234D-02 -0.592411D-02 -0.280375D-02  0.149521D-03  0.572941D-04
     36 -0.284525D-02  0.442877D-02  0.105143D-01 -0.482620D-03 -0.809606D-03
     37 -0.292158D-01 -0.415661D-01  0.224714D-02 -0.237933D-02  0.272206D-03
     38  0.112688D-01  0.168068D-01 -0.412266D-02 -0.153280D-02 -0.538345D-02
     39  0.440351D-02 -0.226372D-02  0.107522D-01 -0.762650D-03 -0.143236D-03
                6             7             8             9            10 
      6 -0.449151D-02
      7 -0.275234D-02  0.504210D+00
      8 -0.450718D-03 -0.319014D-01  0.648780D+00
      9  0.355186D-03  0.710822D-02  0.424944D-02  0.774138D-01
     10  0.954889D-03 -0.466851D-03 -0.478943D-02 -0.363699D-02  0.152926D+00
     11  0.883834D-03  0.221007D-02 -0.160020D-02 -0.172536D-02  0.628836D-01
     12  0.306317D-03  0.388093D-02  0.484406D-02 -0.908575D-03  0.199776D+00
     13  0.275960D-03 -0.124956D+00  0.695097D-01 -0.669118D-03 -0.470862D-03
     14  0.617365D-04  0.497057D-01 -0.160804D+00  0.198484D-02 -0.194399D-03
     15  0.540238D-02 -0.137634D-02 -0.108299D-02 -0.549668D-01 -0.116062D-02
     16 -0.290058D-03 -0.165189D+00 -0.112344D-01 -0.445241D-02 -0.181695D-01
     17  0.183311D-02 -0.132254D-01 -0.115115D+00  0.447702D-02 -0.102214D-01
     18 -0.100107D-01 -0.970166D-02  0.110825D-02 -0.355071D-01 -0.129642D-01
     19 -0.307424D-03 -0.205808D-01  0.521661D-02 -0.147668D-01  0.353569D-04
     20  0.409199D-03  0.233937D-01 -0.511555D-02  0.211824D-01 -0.114648D-04
     21 -0.947409D-03 -0.108956D-02  0.194887D-03  0.549102D-02  0.235961D-03
     22 -0.103887D-03  0.107987D-01  0.198280D-01  0.631780D-05 -0.104604D-03
     23  0.530007D-04 -0.146536D-01 -0.227453D-01 -0.866823D-04  0.883962D-04
     24 -0.867445D-03  0.728612D-04 -0.155145D-03 -0.222446D-02 -0.406814D-03
     25  0.262337D-03 -0.193682D-01  0.485482D-02  0.141911D-01  0.155191D-03
     26 -0.276068D-04  0.219478D-01 -0.543906D-02 -0.206278D-01  0.500813D-04
     27 -0.731875D-03  0.655724D-03 -0.459258D-04  0.523159D-02 -0.446026D-04
     28 -0.186532D-02 -0.126780D-01  0.480626D-01 -0.436319D-02  0.104874D-02
     29 -0.745269D-03 -0.465048D-02 -0.232668D-01  0.115161D-02  0.181846D-02
     30  0.522708D-04  0.395034D-02  0.176683D-02 -0.612610D-02 -0.352585D-03
     31 -0.597405D-02  0.175450D-01 -0.152057D-01  0.129340D-02  0.189270D-03
     32  0.379354D-03  0.198081D-01 -0.211740D-01  0.269948D-02  0.277354D-04
     33  0.625356D-02  0.964037D-03 -0.548063D-02 -0.573844D-02 -0.904551D-03
     34 -0.709223D-03 -0.103378D-01 -0.242881D-01  0.523512D-02 -0.134244D+00
     35 -0.787424D-03 -0.317464D-02  0.203425D-03  0.368177D-02 -0.531964D-01
     36  0.450612D-02 -0.348203D-02 -0.639585D-02 -0.559800D-02 -0.183111D+00
     37 -0.933132D-03  0.273131D-02  0.738861D-01  0.362397D-02  0.410480D-03
     38 -0.187354D-02  0.679307D-01  0.491514D-02 -0.107374D-01  0.154806D-02
     39 -0.184530D-02  0.382732D-02 -0.504417D-02  0.321226D-01 -0.112621D-02
               11            12            13            14            15 
     11  0.488903D-01
     12  0.508555D-01  0.304106D+00
     13  0.374241D-03  0.190833D-03  0.531444D+00
     14  0.292389D-03  0.111060D-03  0.664463D-01  0.539854D+00
     15 -0.111837D-02 -0.302255D-03  0.768444D-03 -0.196768D-02  0.528512D+00
     16 -0.352195D-01  0.527371D-02 -0.227617D-01  0.109607D-01  0.253069D-02
     17 -0.203798D-01  0.936845D-02  0.242652D-01  0.876282D-02 -0.400262D-02
     18 -0.266086D-01  0.696321D-02 -0.637759D-03 -0.193792D-03  0.597548D-02
     19  0.156709D-04 -0.906654D-04 -0.129774D+00 -0.469918D-02 -0.119036D+00
     20  0.867277D-04 -0.113117D-03 -0.374129D-02 -0.483736D-01 -0.818616D-03
     21  0.747919D-04 -0.108144D-03 -0.118209D+00 -0.345126D-02 -0.217101D+00
     22 -0.215903D-03 -0.805096D-04 -0.129953D+00 -0.130698D+00 -0.480125D-03
     23  0.260012D-03 -0.408554D-04 -0.124039D+00 -0.245671D+00 -0.991703D-03
     24  0.288114D-03  0.987760D-04 -0.239545D-03 -0.636047D-03 -0.484398D-01
     25  0.178916D-03  0.104698D-03 -0.131373D+00 -0.633945D-02  0.119782D+00
     26 -0.220399D-03  0.106226D-03 -0.493170D-02 -0.483856D-01  0.230358D-02
     27  0.181963D-04  0.741793D-04  0.118423D+00  0.576167D-02 -0.213577D+00
     28  0.618762D-02  0.744528D-03  0.105028D-03 -0.802114D-02  0.205221D-02
     29 -0.379330D-03 -0.797768D-03 -0.233196D-02  0.324696D-02  0.205620D-02
     30  0.274891D-02 -0.132428D-02  0.553541D-03 -0.439331D-03  0.120419D-01
     31 -0.183347D-03 -0.449465D-03 -0.262273D-02 -0.140325D-02  0.373433D-03
     32 -0.417612D-03 -0.289613D-03 -0.493925D-02 -0.271939D-02  0.579778D-03
     33 -0.439898D-03  0.100166D-03 -0.664915D-03 -0.442531D-03 -0.708523D-03
     34 -0.343944D-01 -0.210027D+00  0.206463D-02 -0.943511D-03  0.108856D-02
     35 -0.306453D-01 -0.607833D-01  0.154807D-02 -0.374094D-02  0.890958D-03
     36 -0.245918D-01 -0.308899D+00 -0.587548D-03 -0.160859D-03 -0.534945D-02
     37 -0.206960D-02 -0.136281D-02 -0.488572D-02 -0.142707D-02 -0.230232D-02
     38  0.477126D-02 -0.109733D-02 -0.126437D-02 -0.788110D-02  0.493070D-02
     39 -0.174799D-02  0.221020D-04  0.812814D-04 -0.654106D-03 -0.134869D-01
               16            17            18            19            20 
     16  0.424730D+00
     17  0.894601D-01  0.529897D+00
     18  0.309480D-01  0.743124D-02  0.696040D-01
     19  0.336030D-02  0.214803D-02 -0.138555D-02  0.146394D+00
     20 -0.239696D-02 -0.253349D-02  0.419676D-03 -0.233253D-02  0.513366D-01
     21  0.234561D-02 -0.323504D-03 -0.866626D-03  0.132547D+00  0.214925D-02
     22  0.865537D-03  0.120177D-02  0.320654D-03 -0.992734D-02 -0.160624D-01
     23 -0.179827D-02 -0.145282D-02  0.589010D-04  0.781692D-03  0.873530D-03
     24 -0.190068D-04  0.155418D-03  0.290877D-03 -0.154399D-01 -0.245676D-01
     25  0.213320D-02  0.288786D-02  0.144417D-02  0.111708D-01  0.335835D-03
     26 -0.991211D-03 -0.410869D-02 -0.280962D-03 -0.241453D-03  0.622671D-03
     27 -0.211274D-02  0.920559D-03 -0.942692D-03  0.171645D-01  0.196101D-02
     28 -0.131312D+00  0.155156D+00 -0.126036D-01 -0.178909D-02  0.139167D-02
     29  0.676378D-01 -0.171149D+00  0.101772D-01  0.164858D-02 -0.112159D-02
     30 -0.444001D-02  0.236281D-01 -0.315017D-01  0.184009D-02 -0.214142D-02
     31  0.415824D-02 -0.123958D-02 -0.521562D-03 -0.106631D-03 -0.113087D-03
     32  0.525472D-02 -0.404289D-02  0.504669D-03 -0.108060D-03  0.272774D-03
     33 -0.254007D-02 -0.248409D-03  0.636346D-02 -0.678584D-04 -0.140795D-03
     34 -0.116267D+00 -0.932430D-01  0.181512D-02 -0.571892D-03  0.204884D-03
     35 -0.601813D-01 -0.185832D+00  0.264215D-01 -0.803228D-03  0.108831D-02
     36 -0.230106D-01 -0.144802D-01 -0.427651D-01 -0.232463D-03  0.736946D-03
     37  0.389719D-01 -0.120896D+00  0.201144D-02 -0.670422D-03  0.784379D-03
     38 -0.787633D-01 -0.127727D-01 -0.221592D-01 -0.102341D-02  0.851457D-03
     39 -0.729328D-02 -0.285932D-01  0.426519D-01 -0.205097D-02  0.261424D-02
               21            22            23            24            25 
     21  0.236858D+00
     22  0.131471D-02  0.140308D+00
     23  0.756286D-03  0.136333D+00  0.269713D+00
     24  0.246494D-03  0.809684D-03  0.978982D-03  0.489354D-01
     25 -0.166278D-01 -0.962411D-02  0.767498D-03  0.151866D-01  0.147373D+00
     26 -0.127718D-02 -0.154095D-01  0.771831D-03  0.243767D-01 -0.979489D-04
     27 -0.244874D-01 -0.154862D-02 -0.788371D-03  0.503807D-03 -0.132874D+00
     28 -0.213294D-03  0.168505D-03  0.206689D-03 -0.429971D-05 -0.205840D-02
     29  0.807356D-03 -0.242573D-03  0.162638D-03  0.427440D-05  0.119546D-02
     30 -0.269710D-03 -0.400622D-04  0.320186D-04 -0.170735D-03 -0.193709D-02
     31  0.932018D-04  0.833881D-03 -0.797656D-03 -0.438415D-04 -0.983934D-04
     32  0.945369D-04  0.134062D-02 -0.880660D-03  0.114647D-04 -0.133706D-03
     33  0.148042D-03  0.958414D-04 -0.224303D-03  0.805108D-03  0.167113D-03
     34 -0.424367D-03 -0.620502D-03 -0.802026D-03  0.922381D-04 -0.881898D-03
     35 -0.386320D-03 -0.101596D-02  0.215370D-02 -0.305033D-03 -0.682843D-03
     36  0.437672D-03 -0.154674D-03  0.394639D-04 -0.585624D-03  0.465257D-03
     37 -0.673408D-03  0.117920D-02 -0.136824D-02 -0.761438D-04 -0.353652D-03
     38 -0.105739D-03  0.468152D-03 -0.285760D-03 -0.494360D-04 -0.247798D-02
     39  0.610383D-03  0.593493D-04  0.211527D-04  0.340911D-04  0.154762D-02
               26            27            28            29            30 
     26  0.509315D-01
     27 -0.509600D-02  0.233321D+00
     28  0.227194D-02 -0.125905D-03  0.123557D+00
     29 -0.243603D-03 -0.106737D-02 -0.117887D+00  0.236753D+00
     30  0.232428D-02 -0.246122D-03 -0.376142D-02 -0.148786D-01  0.389485D-01
     31  0.578682D-04 -0.162929D-03 -0.444699D-02  0.424118D-02 -0.105609D-02
     32  0.336261D-03 -0.892488D-04  0.235584D-02  0.518521D-02  0.939257D-04
     33  0.370963D-04  0.103233D-04  0.227212D-02 -0.180746D-02 -0.225293D-02
     34 -0.511441D-03  0.214598D-03  0.192641D-01  0.131762D-01  0.149065D-02
     35  0.129484D-02  0.133044D-03 -0.212792D-01 -0.459447D-01  0.325583D-02
     36 -0.728405D-03  0.110425D-03  0.814344D-02  0.362010D-02  0.101323D-01
     37 -0.233529D-03  0.977474D-03  0.157232D-03  0.414377D-01  0.241038D-02
     38  0.243769D-02 -0.105194D-03 -0.620244D-01 -0.280926D-01 -0.149445D-01
     39 -0.261499D-02  0.457332D-03  0.108256D-01 -0.100147D-02 -0.184336D-01
               31            32            33            34            35 
     31  0.189524D+00
     32 -0.174660D+00  0.368512D+00
     33  0.202038D-01 -0.416953D-01 -0.868169D-02
     34 -0.580815D-03 -0.223465D-03  0.138241D-02  0.253581D+00
     35  0.266445D-03  0.186715D-02  0.989915D-03  0.139793D+00  0.278606D+00
     36  0.843546D-03 -0.658947D-04 -0.295024D-02  0.203970D+00  0.276758D-01
     37 -0.613426D-02 -0.220016D-01  0.667373D-02 -0.714543D-02  0.405866D-02
     38 -0.113607D-01 -0.167111D-01  0.695575D-02  0.810851D-02 -0.131832D-01
     39  0.410833D-02  0.483355D-02  0.151721D-01 -0.539494D-03  0.201695D-02
               36            37            38            39 
     36  0.349167D+00
     37  0.484050D-03  0.733455D-02
     38  0.107315D-01  0.691228D-01  0.545276D-01
     39 -0.872110D-02 -0.130804D-01  0.325770D-01 -0.593358D-01
 FormGI is forming the generalized inverse of G from B-inverse, IUseBI=4.
 Leave Link  716 at Thu Apr 14 11:05:47 2016, MaxMem=    33554432 cpu:         0.0
 (Enter /usr/local/gau/g09/l103.exe)

 GradGradGradGradGradGradGradGradGradGradGradGradGradGradGradGradGradGrad
 Berny optimization.
 Red2BG is reusing G-inverse.
 Internal  Forces:  Max     0.064541871 RMS     0.013736257
 Search for a saddle point.
 Step number   1 out of a maximum of   83
 All quantities printed in internal units (Hartrees-Bohrs-Radians)
 Swapping is turned off.
 Second derivative matrix not updated -- analytic derivatives used.
 ITU=  0
     Eigenvalues ---   -0.04683  -0.01160  -0.00244  -0.00014   0.00116
     Eigenvalues ---    0.00388   0.00608   0.01020   0.01474   0.02142
     Eigenvalues ---    0.03602   0.03982   0.04094   0.05283   0.10472
     Eigenvalues ---    0.11242   0.11434   0.12710   0.13629   0.15438
     Eigenvalues ---    0.15733   0.16591   0.19395   0.23730   0.31910
     Eigenvalues ---    0.32794   0.33940   0.34667   0.35742   0.36406
     Eigenvalues ---    0.41665   0.45970   0.49521
 Eigenvectors required to have negative eigenvalues:
                          R14       R6        D31       A24       A21
   1                    0.58746  -0.35347  -0.31800  -0.27820   0.24828
                          R13       A14       R5        A22       R15
   1                   -0.23040   0.16896   0.14484  -0.14059   0.13087
 Eigenvalue     2 is  -1.16D-02 should be greater than     0.000000 Eigenvector:
                          D1        D2        D32       D4        D25
   1                    0.37151   0.34488   0.31615   0.28074  -0.27046
                          A26       D5        D3        D28       D7
   1                    0.25699   0.25411   0.19339   0.18354  -0.17854
 Eigenvalue     3 is  -2.44D-03 should be greater than     0.000000 Eigenvector:
                          D3        D7        D2        D1        D32
   1                   -0.46131   0.45755  -0.36042  -0.29591   0.27385
                          D25       D4        A25       D17       A26
   1                   -0.25669   0.16949   0.16540  -0.15316   0.14922
 Eigenvalue     4 is  -1.37D-04 should be greater than     0.000000 Eigenvector:
                          D29       D28       D27       D13       D14
   1                   -0.56642  -0.56147  -0.54191   0.08789   0.08096
                          D12       D20       D18       D16       D21
   1                    0.08064   0.08059   0.07794   0.07575   0.05685
 RFO step:  Lambda0=5.246539942D-02 Lambda=-4.85256149D-02.
 Linear search not attempted -- option 19 set.
 Maximum step size (   0.300) exceeded in Quadratic search.
    -- Step size scaled by   0.384
 Iteration  1 RMS(Cart)=  0.04827710 RMS(Int)=  0.00350078
 Iteration  2 RMS(Cart)=  0.00342539 RMS(Int)=  0.00163007
 Iteration  3 RMS(Cart)=  0.00001257 RMS(Int)=  0.00163002
 Iteration  4 RMS(Cart)=  0.00000001 RMS(Int)=  0.00163002
 ITry= 1 IFail=0 DXMaxC= 1.51D-01 DCOld= 1.00D+10 DXMaxT= 3.00D-01 DXLimC= 3.00D+00 Rises=F
 Variable       Old X    -DE/DX   Delta X   Delta X   Delta X     New X
                                 (Linear)    (Quad)   (Total)
    R1        1.89636   0.00058   0.00000   0.00002   0.00002   1.89638
    R2        2.63279   0.04000   0.00000   0.04124   0.04114   2.67393
    R3        1.89992   0.01696   0.00000   0.00875   0.00977   1.90969
    R4        2.84087  -0.00397   0.00000  -0.00295  -0.00297   2.83789
    R5        2.83459  -0.06007   0.00000  -0.05246  -0.05192   2.78267
    R6        2.64281   0.02160   0.00000  -0.07396  -0.07553   2.56727
    R7        1.85600  -0.00040   0.00000  -0.00045  -0.00045   1.85554
    R8        2.07561   0.00119   0.00000  -0.00003  -0.00003   2.07558
    R9        2.06050   0.00009   0.00000  -0.00124  -0.00124   2.05926
   R10        2.07718   0.00051   0.00000   0.00056   0.00056   2.07774
   R11        2.66481   0.00116   0.00000  -0.02222  -0.02336   2.64146
   R12        2.64885  -0.01270   0.00000   0.00124   0.00110   2.64995
   R13        2.50032   0.00958   0.00000  -0.07281  -0.07191   2.42841
   R14        2.67361  -0.06454   0.00000   0.07342   0.07381   2.74742
   R15        2.66625   0.01401   0.00000   0.11790   0.11825   2.78450
    A1        2.10258  -0.00062   0.00000  -0.00866  -0.00921   2.09337
    A2        2.07788  -0.00088   0.00000   0.00517   0.00504   2.08292
    A3        2.08053   0.00088   0.00000   0.01456   0.01390   2.09444
    A4        2.03345   0.00650   0.00000   0.00017   0.00102   2.03446
    A5        2.10966   0.00174   0.00000   0.00722   0.00417   2.11383
    A6        1.16665  -0.01111   0.00000   0.01987   0.01995   1.18660
    A7        2.14004  -0.00823   0.00000  -0.00771  -0.00621   2.13383
    A8        1.93153   0.00213   0.00000   0.01228   0.01242   1.94395
    A9        1.93081  -0.00156   0.00000  -0.00534  -0.00559   1.92522
   A10        1.93804  -0.00219   0.00000  -0.01738  -0.01728   1.92076
   A11        1.88943  -0.00007   0.00000   0.00528   0.00494   1.89437
   A12        1.87473   0.00092   0.00000   0.00401   0.00437   1.87911
   A13        1.89759   0.00087   0.00000   0.00180   0.00164   1.89923
   A14        2.10339  -0.00831   0.00000   0.03700   0.03469   2.13808
   A15        2.16418  -0.01607   0.00000  -0.06629  -0.06397   2.10022
   A16        2.01544   0.02429   0.00000   0.02806   0.02591   2.04135
   A17        1.34433  -0.00527   0.00000  -0.04082  -0.04050   1.30383
   A18        1.93088  -0.00508   0.00000  -0.02075  -0.02089   1.90999
   A19        2.23171  -0.02082   0.00000  -0.01231  -0.01595   2.21576
   A20        1.66527   0.01381   0.00000   0.01548   0.01480   1.68007
   A21        2.77521  -0.02283   0.00000  -0.00753  -0.01481   2.76040
   A22        2.30270   0.00273   0.00000  -0.05910  -0.06352   2.23917
   A23        3.20009  -0.00461   0.00000   0.02005   0.02097   3.22106
   A24        3.19411   0.00673   0.00000  -0.07685  -0.07959   3.11452
   A25        3.22401   0.00403   0.00000   0.12052   0.12115   3.34516
   A26        3.30621   0.00205   0.00000   0.13629   0.13724   3.44346
    D1        0.10954   0.00117   0.00000   0.09208   0.09278   0.20232
    D2       -3.04060   0.00232   0.00000   0.05167   0.05300  -2.98760
    D3       -3.11447  -0.00287   0.00000  -0.02844  -0.02837   3.14034
    D4        3.02427  -0.00206   0.00000   0.14854   0.14958  -3.10934
    D5       -0.12587  -0.00091   0.00000   0.10813   0.10980  -0.01607
    D6       -0.19975  -0.00609   0.00000   0.02802   0.02843  -0.17132
    D7        3.10461   0.00242   0.00000   0.01742   0.01959   3.12420
    D8        0.18665   0.00557   0.00000  -0.03640  -0.03500   0.15166
    D9        1.03078  -0.00092   0.00000  -0.00003   0.00092   1.03171
   D10        3.12490  -0.00063   0.00000   0.01111   0.01158   3.13648
   D11       -1.04963  -0.00204   0.00000  -0.00181  -0.00132  -1.05094
   D12       -2.10210  -0.00215   0.00000   0.04107   0.04114  -2.06096
   D13       -0.00799  -0.00186   0.00000   0.05221   0.05180   0.04381
   D14        2.10067  -0.00327   0.00000   0.03929   0.03890   2.13958
   D15       -2.29465  -0.00147   0.00000  -0.05324  -0.05372  -2.34837
   D16        1.20140   0.00482   0.00000   0.03158   0.03043   1.23183
   D17       -0.22900  -0.00151   0.00000  -0.07263  -0.07226  -0.30126
   D18       -3.01614   0.00478   0.00000   0.01218   0.01190  -3.00424
   D19        1.89023  -0.00117   0.00000  -0.05859  -0.05811   1.83212
   D20       -0.89691   0.00512   0.00000   0.02622   0.02604  -0.87087
   D21        0.09061  -0.00950   0.00000  -0.01082  -0.00963   0.08097
   D22       -3.03040  -0.00438   0.00000   0.06426   0.06292  -2.96748
   D23       -3.06006  -0.00820   0.00000  -0.05371  -0.05167  -3.11173
   D24        0.10211  -0.00308   0.00000   0.02137   0.02089   0.12300
   D25        2.87353  -0.00196   0.00000  -0.16054  -0.16015   2.71337
   D26        0.12429   0.00432   0.00000  -0.02308  -0.02225   0.10204
   D27       -2.06781  -0.00198   0.00000  -0.08571  -0.08326  -2.15106
   D28        1.09343   0.00323   0.00000  -0.01423  -0.01478   1.07865
   D29       -1.55975  -0.00421   0.00000  -0.02434  -0.02615  -1.58590
   D30       -0.16281  -0.00613   0.00000   0.02558   0.02529  -0.13752
   D31       -0.70507   0.01270   0.00000  -0.14735  -0.14716  -0.85223
   D32       -2.88658   0.00888   0.00000   0.15374   0.14844  -2.73814
         Item               Value     Threshold  Converged?
 Maximum Force            0.064542     0.000450     NO 
 RMS     Force            0.013736     0.000300     NO 
 Maximum Displacement     0.150703     0.001800     NO 
 RMS     Displacement     0.047623     0.001200     NO 
 Predicted change in Energy=-2.190823D-03
 Lowest energy point so far.  Saving SCF results.
 GradGradGradGradGradGradGradGradGradGradGradGradGradGradGradGradGradGrad

 Leave Link  103 at Thu Apr 14 11:05:47 2016, MaxMem=    33554432 cpu:         0.0
 (Enter /usr/local/gau/g09/l202.exe)
                          Input orientation:                          
 ---------------------------------------------------------------------
 Center     Atomic      Atomic             Coordinates (Angstroms)
 Number     Number       Type             X           Y           Z
 ---------------------------------------------------------------------
      1          7           0        1.215406    0.914837    0.222954
      2          1           0        2.209721    0.975126    0.101451
      3          6           0        0.573735   -0.345534    0.179395
      4          1           0       -2.099448   -1.877024   -0.441761
      5          6           0        1.464159   -1.554213    0.217945
      6          6           0       -0.894864   -0.451473    0.161257
      7          1           0        2.076688   -1.571392    1.129474
      8          1           0        0.866968   -2.465105    0.184582
      9          1           0        2.147671   -1.546517   -0.643236
     10          8           0       -1.727897    0.668727    0.090216
     11          1           0        0.664865    1.762253    0.228122
     12          8           0       -1.517174   -1.696991    0.328104
     13          1           0       -0.306319    0.666733    0.394944
 ---------------------------------------------------------------------
                    Distance matrix (angstroms):
                    1          2          3          4          5
     1  N    0.000000
     2  H    1.003523   0.000000
     3  C    1.414982   2.103965   0.000000
     4  H    4.384586   5.196035   3.142802   0.000000
     5  C    2.481554   2.639505   1.501748   3.638505   0.000000
     6  C    2.514727   3.417193   1.472526   1.961339   2.604657
     7  H    2.782970   2.749416   2.159687   4.472393   1.098350
     8  H    3.398072   3.693926   2.139766   3.088328   1.089714
     9  H    2.770861   2.630037   2.143912   4.264721   1.099491
    10  O    2.956557   3.949537   2.516781   2.627147   3.891915
    11  H    1.010563   1.738446   2.110319   4.618930   3.411440
    12  O    3.781494   4.591440   2.494083   0.981911   2.986782
    13  H    1.551381   2.551803   1.358543   3.222746   2.845790
                    6          7          8          9         10
     6  C    0.000000
     7  H    3.319907   0.000000
     8  H    2.675688   1.776223   0.000000
     9  H    3.332169   1.774305   1.780250   0.000000
    10  O    1.397798   4.535754   4.069783   4.523858   0.000000
    11  H    2.708839   3.730801   4.232411   3.729067   2.634413
    12  O    1.402292   3.684265   2.508930   3.794369   2.386968
    13  H    1.285061   3.350741   3.351010   3.463865   1.453874
                   11         12         13
    11  H    0.000000
    12  O    4.091168   0.000000
    13  H    1.473496   2.656657   0.000000
 Stoichiometry    C3H7NO2
 Framework group  C1[X(C3H7NO2)]
 Deg. of freedom    33
 Full point group                 C1      NOp   1
 RotChk:  IX=0 Diff= 1.74D-02
 Largest Abelian subgroup         C1      NOp   1
 Largest concise Abelian subgroup C1      NOp   1
                         Standard orientation:                         
 ---------------------------------------------------------------------
 Center     Atomic      Atomic             Coordinates (Angstroms)
 Number     Number       Type             X           Y           Z
 ---------------------------------------------------------------------
      1          7           0        1.436913   -1.204272   -0.035184
      2          1           0        2.430404   -1.176531    0.103611
      3          6           0        0.681948   -0.008975    0.023716
      4          1           0       -2.130173    1.257640    0.627758
      5          6           0        1.458538    1.276380    0.028157
      6          6           0       -0.790280   -0.037745    0.016599
      7          1           0        2.082056    1.370588   -0.871133
      8          1           0        0.780015    2.128039    0.070102
      9          1           0        2.125412    1.310883    0.901637
     10          8           0       -1.518367   -1.230543    0.047635
     11          1           0        0.966400   -2.097974   -0.069097
     12          8           0       -1.521094    1.149443   -0.134781
     13          1           0       -0.098048   -1.091908   -0.230256
 ---------------------------------------------------------------------
 Rotational constants (GHZ):      4.8397289      3.0741587      1.9141205
 Leave Link  202 at Thu Apr 14 11:05:47 2016, MaxMem=    33554432 cpu:         0.0
 (Enter /usr/local/gau/g09/l301.exe)
 Standard basis: 6-31G (6D, 7F)
 Ernie: Thresh=  0.10000D-02 Tol=  0.10000D-05 Strict=F.
 There are    68 symmetry adapted cartesian basis functions of A   symmetry.
 There are    68 symmetry adapted basis functions of A   symmetry.
    68 basis functions,   160 primitive gaussians,    68 cartesian basis functions
    24 alpha electrons       24 beta electrons
       nuclear repulsion energy       243.2215892716 Hartrees.
 IExCor=  402 DFT=T Ex+Corr=B3LYP ExCW=0 ScaHFX=  0.200000
 ScaDFX=  0.800000  0.720000  1.000000  0.810000 ScalE2=  1.000000  1.000000
 IRadAn=      0 IRanWt=     -1 IRanGd=            0 ICorTp=0 IEmpDi=  4
 NAtoms=   13 NActive=   13 NUniq=   13 SFac= 1.00D+00 NAtFMM=   60 NAOKFM=F Big=F
 Integral buffers will be    131072 words long.
 Raffenetti 2 integral format.
 Two-electron integral symmetry is turned on.
 Leave Link  301 at Thu Apr 14 11:05:47 2016, MaxMem=    33554432 cpu:         0.0
 (Enter /usr/local/gau/g09/l302.exe)
 NPDir=0 NMtPBC=     1 NCelOv=     1 NCel=       1 NClECP=     1 NCelD=      1
         NCelK=      1 NCelE2=     1 NClLst=     1 CellRange=     0.0.
 One-electron integrals computed using PRISM.
 NBasis=    68 RedAO= T EigKep=  3.97D-03  NBF=    68
 NBsUse=    68 1.00D-06 EigRej= -1.00D+00 NBFU=    68
 Precomputing XC quadrature grid using
 IXCGrd= 4 IRadAn=           0 IRanWt=          -1 IRanGd=           0 AccXCQ= 0.00D+00.
 Generated NRdTot=       0 NPtTot=           0 NUsed=           0 NTot=          32
 NSgBfM=    68    68    68    68    68 MxSgAt=    13 MxSgA2=    13.
 Leave Link  302 at Thu Apr 14 11:05:47 2016, MaxMem=    33554432 cpu:         0.2
 (Enter /usr/local/gau/g09/l303.exe)
 DipDrv:  MaxL=1.
 Leave Link  303 at Thu Apr 14 11:05:47 2016, MaxMem=    33554432 cpu:         0.0
 (Enter /usr/local/gau/g09/l401.exe)
 Initial guess from the checkpoint file:  "Ala-S-opt-freq-tsa3-6-31g.chk"
 B after Tr=     0.000000    0.000000    0.000000
         Rot=    0.999999   -0.000419    0.000253   -0.000888 Ang=  -0.12 deg.
 Guess basis will be translated and rotated to current coordinates.
 JPrj=2 DoOrth=T DoCkMO=T.
 Generating alternative initial guess.
 ExpMin= 1.61D-01 ExpMax= 5.48D+03 ExpMxC= 8.25D+02 IAcc=1 IRadAn=         1 AccDes= 0.00D+00
 Harris functional with IExCor=  402 and IRadAn=       1 diagonalized for initial guess.
 HarFok:  IExCor=  402 AccDes= 0.00D+00 IRadAn=         1 IDoV= 1 UseB2=F ITyADJ=14
 ICtDFT=  3500011 ScaDFX=  1.000000  1.000000  1.000000  1.000000
 FoFCou: FMM=F IPFlag=           0 FMFlag=      100000 FMFlg1=           0
         NFxFlg=           0 DoJE=T BraDBF=F KetDBF=T FulRan=T
         wScrn=  0.000000 ICntrl=     500 IOpCl=  0 I1Cent=   200000004 NGrid=           0
         NMat0=    1 NMatS0=      1 NMatT0=    0 NMatD0=    1 NMtDS0=    0 NMtDT0=    0
 Petite list used in FoFCou.
 Harris En= -323.463573559516    
 Leave Link  401 at Thu Apr 14 11:05:49 2016, MaxMem=    33554432 cpu:         0.5
 (Enter /usr/local/gau/g09/l502.exe)
 Closed shell SCF:
 Using DIIS extrapolation, IDIIS=  1040.
 Integral symmetry usage will be decided dynamically.
 Keep R1 ints in memory in canonical form, NReq=3676491.
 IVT=       33364 IEndB=       33364 NGot=    33554432 MDV=    30768038
 LenX=    30768038 LenY=    30762973
 Requested convergence on RMS density matrix=1.00D-08 within 128 cycles.
 Requested convergence on MAX density matrix=1.00D-06.
 Requested convergence on             energy=1.00D-06.
 No special actions if energy rises.
 FoFCou: FMM=F IPFlag=           0 FMFlag=           0 FMFlg1=           0
         NFxFlg=           0 DoJE=F BraDBF=F KetDBF=F FulRan=T
         wScrn=  0.000000 ICntrl=     600 IOpCl=  0 I1Cent=           0 NGrid=           0
         NMat0=    1 NMatS0=   2346 NMatT0=    0 NMatD0=    1 NMtDS0=    0 NMtDT0=    0
 Symmetry not used in FoFCou.
 Integral accuracy reduced to 1.0D-05 until final iterations.

 Cycle   1  Pass 0  IDiag  1:
 E= -323.396296681990    
 DIIS: error= 4.33D-03 at cycle   1 NSaved=   1.
 NSaved= 1 IEnMin= 1 EnMin= -323.396296681990     IErMin= 1 ErrMin= 4.33D-03
 ErrMax= 4.33D-03  0.00D+00 EMaxC= 1.00D-01 BMatC= 4.09D-03 BMatP= 4.09D-03
 IDIUse=3 WtCom= 9.57D-01 WtEn= 4.33D-02
 Coeff-Com:  0.100D+01
 Coeff-En:   0.100D+01
 Coeff:      0.100D+01
 Gap=     0.558 Goal=   None    Shift=    0.000
 GapD=    0.558 DampG=2.000 DampE=1.000 DampFc=2.0000 IDamp=-1.
 RMSDP=3.10D-03 MaxDP=2.25D-02              OVMax= 5.03D-02

 Cycle   2  Pass 0  IDiag  1:
 E= -323.405016886439     Delta-E=       -0.008720204450 Rises=F Damp=F
 DIIS: error= 2.19D-03 at cycle   2 NSaved=   2.
 NSaved= 2 IEnMin= 2 EnMin= -323.405016886439     IErMin= 2 ErrMin= 2.19D-03
 ErrMax= 2.19D-03  0.00D+00 EMaxC= 1.00D-01 BMatC= 6.15D-04 BMatP= 4.09D-03
 IDIUse=3 WtCom= 9.78D-01 WtEn= 2.19D-02
 Coeff-Com:  0.150D+00 0.850D+00
 Coeff-En:   0.000D+00 0.100D+01
 Coeff:      0.147D+00 0.853D+00
 Gap=     0.164 Goal=   None    Shift=    0.000
 RMSDP=1.07D-03 MaxDP=1.09D-02 DE=-8.72D-03 OVMax= 1.85D-02

 Cycle   3  Pass 0  IDiag  1:
 E= -323.404381615708     Delta-E=        0.000635270731 Rises=F Damp=F
 DIIS: error= 3.82D-03 at cycle   3 NSaved=   3.
 NSaved= 3 IEnMin= 2 EnMin= -323.405016886439     IErMin= 2 ErrMin= 2.19D-03
 ErrMax= 3.82D-03  0.00D+00 EMaxC= 1.00D-01 BMatC= 1.61D-03 BMatP= 6.15D-04
 IDIUse=3 WtCom= 1.39D-01 WtEn= 8.61D-01
 Coeff-Com: -0.376D-01 0.639D+00 0.399D+00
 Coeff-En:   0.000D+00 0.636D+00 0.364D+00
 Coeff:     -0.524D-02 0.636D+00 0.369D+00
 Gap=     0.165 Goal=   None    Shift=    0.000
 RMSDP=6.37D-04 MaxDP=7.98D-03 DE= 6.35D-04 OVMax= 1.03D-02

[...]
   D24       -0.37778   0.00000   0.00000  -0.00012  -0.00012  -0.37790
   D25        1.23115   0.00000   0.00000  -0.00008  -0.00008   1.23107
   D26        0.27993   0.00000   0.00000   0.00002   0.00002   0.27995
   D27       -3.03474   0.00000   0.00000   0.00059   0.00059  -3.03414
   D28       -0.34777   0.00000   0.00000   0.00061   0.00061  -0.34716
   D29       -2.21628   0.00000   0.00000   0.00065   0.00065  -2.21563
   D30       -0.37856   0.00000   0.00000  -0.00003  -0.00003  -0.37859
   D31       -1.00171   0.00000   0.00000  -0.00010  -0.00010  -1.00180
   D32       -2.34199   0.00000   0.00000  -0.00010  -0.00010  -2.34210
         Item               Value     Threshold  Converged?
 Maximum Force            0.000015     0.000450     YES
 RMS     Force            0.000003     0.000300     YES
 Maximum Displacement     0.000616     0.001800     YES
 RMS     Displacement     0.000147     0.001200     YES
 Predicted change in Energy=-4.821880D-09
 Optimization completed.
    -- Stationary point found.
                           ----------------------------
                           !   Optimized Parameters   !
                           ! (Angstroms and Degrees)  !
 --------------------------                            --------------------------
 ! Name  Definition              Value          Derivative Info.                !
 --------------------------------------------------------------------------------
 ! R1    R(1,2)                  1.0057         -DE/DX =    0.0                 !
 ! R2    R(1,3)                  1.3599         -DE/DX =    0.0                 !
 ! R3    R(1,11)                 1.0126         -DE/DX =    0.0                 !
 ! R4    R(3,5)                  1.4962         -DE/DX =    0.0                 !
 ! R5    R(3,6)                  1.397          -DE/DX =    0.0                 !
 ! R6    R(3,13)                 2.1527         -DE/DX =    0.0                 !
 ! R7    R(4,12)                 0.9772         -DE/DX =    0.0                 !
 ! R8    R(5,7)                  1.0901         -DE/DX =    0.0                 !
 ! R9    R(5,8)                  1.0985         -DE/DX =    0.0                 !
 ! R10   R(5,9)                  1.099          -DE/DX =    0.0                 !
 ! R11   R(6,10)                 1.4713         -DE/DX =    0.0                 !
 ! R12   R(6,12)                 1.4111         -DE/DX =    0.0                 !
 ! R13   R(6,13)                 1.2188         -DE/DX =    0.0                 !
 ! R14   R(10,13)                1.3417         -DE/DX =    0.0                 !
 ! R15   R(11,13)                2.5839         -DE/DX =    0.0                 !
 ! A1    A(2,1,3)              122.517          -DE/DX =    0.0                 !
 ! A2    A(2,1,11)             120.5008         -DE/DX =    0.0                 !
 ! A3    A(3,1,11)             116.9576         -DE/DX =    0.0                 !
 ! A4    A(1,3,5)              120.0185         -DE/DX =    0.0                 !
 ! A5    A(1,3,6)              116.6983         -DE/DX =    0.0                 !
 ! A6    A(1,3,13)              97.2784         -DE/DX =    0.0                 !
 ! A7    A(5,3,6)              123.234          -DE/DX =    0.0                 !
 ! A8    A(3,5,7)              110.3143         -DE/DX =    0.0                 !
 ! A9    A(3,5,8)              110.2463         -DE/DX =    0.0                 !
 ! A10   A(3,5,9)              111.7812         -DE/DX =    0.0                 !
 ! A11   A(7,5,8)              108.0964         -DE/DX =    0.0                 !
 ! A12   A(7,5,9)              108.8876         -DE/DX =    0.0                 !
 ! A13   A(8,5,9)              107.3977         -DE/DX =    0.0                 !
 ! A14   A(3,6,10)             119.6019         -DE/DX =    0.0                 !
 ! A15   A(3,6,12)             117.8436         -DE/DX =    0.0                 !
 ! A16   A(10,6,12)            117.1335         -DE/DX =    0.0                 !
 ! A17   A(1,11,13)             84.7742         -DE/DX =    0.0                 !
 ! A18   A(4,12,6)             107.5604         -DE/DX =    0.0                 !
 ! A19   A(3,13,10)             87.1483         -DE/DX =    0.0                 !
 ! A20   A(3,13,11)             49.7525         -DE/DX =    0.0                 !
 ! A21   A(6,13,11)             71.2917         -DE/DX =    0.0                 !
 ! A22   A(10,13,11)            61.6528         -DE/DX =    0.0                 !
 ! A23   L(5,3,13,1,-1)        217.2969         -DE/DX =    0.0                 !
 ! A24   L(12,6,13,5,-1)       212.5459         -DE/DX =    0.0                 !
 ! A25   L(5,3,13,1,-2)        209.262          -DE/DX =    0.0                 !
 ! A26   L(12,6,13,5,-2)       234.8833         -DE/DX =    0.0                 !
 ! D1    D(2,1,3,5)             -9.6716         -DE/DX =    0.0                 !
 ! D2    D(2,1,3,6)            167.859          -DE/DX =    0.0                 !
 ! D3    D(2,1,3,13)           141.0664         -DE/DX =    0.0                 !
 ! D4    D(11,1,3,5)           172.1261         -DE/DX =    0.0                 !
 ! D5    D(11,1,3,6)           -10.3432         -DE/DX =    0.0                 !
 ! D6    D(11,1,3,13)          -37.1359         -DE/DX =    0.0                 !
 ! D7    D(2,1,11,13)         -148.1745         -DE/DX =    0.0                 !
 ! D8    D(3,1,11,13)           30.0662         -DE/DX =    0.0                 !
 ! D9    D(1,3,5,7)            174.0445         -DE/DX =    0.0                 !
 ! D10   D(1,3,5,8)            -66.6429         -DE/DX =    0.0                 !
 ! D11   D(1,3,5,9)             52.736          -DE/DX =    0.0                 !
 ! D12   D(6,3,5,7)             -3.3179         -DE/DX =    0.0                 !
 ! D13   D(6,3,5,8)            115.9947         -DE/DX =    0.0                 !
 ! D14   D(6,3,5,9)           -124.6265         -DE/DX =    0.0                 !
 ! D15   D(7,5,13,10)         -110.7452         -DE/DX =    0.0                 !
 ! D16   D(7,5,13,11)         -162.6594         -DE/DX =    0.0                 !
 ! D17   D(8,5,13,10)            2.2348         -DE/DX =    0.0                 !
 ! D18   D(8,5,13,11)          -49.6794         -DE/DX =    0.0                 !
 ! D19   D(9,5,13,10)          140.3199         -DE/DX =    0.0                 !
 ! D20   D(9,5,13,11)           88.4057         -DE/DX =    0.0                 !
 ! D21   D(1,3,6,10)             7.6208         -DE/DX =    0.0                 !
 ! D22   D(1,3,6,12)           160.9112         -DE/DX =    0.0                 !
 ! D23   D(5,3,6,10)          -174.9355         -DE/DX =    0.0                 !
 ! D24   D(5,3,6,12)           -21.6451         -DE/DX =    0.0                 !
 ! D25   D(1,3,13,10)           70.5396         -DE/DX =    0.0                 !
 ! D26   D(1,3,13,11)           16.0389         -DE/DX =    0.0                 !
 ! D27   D(3,6,12,4)          -173.8775         -DE/DX =    0.0                 !
 ! D28   D(10,6,12,4)          -19.926          -DE/DX =    0.0                 !
 ! D29   D(4,12,13,11)        -126.9832         -DE/DX =    0.0                 !
 ! D30   D(1,11,13,3)          -21.6901         -DE/DX =    0.0                 !
 ! D31   D(1,11,13,6)          -57.3936         -DE/DX =    0.0                 !
 ! D32   D(1,11,13,10)        -134.1864         -DE/DX =    0.0                 !
 --------------------------------------------------------------------------------
 GradGradGradGradGradGradGradGradGradGradGradGradGradGradGradGradGradGrad

 Leave Link  103 at Thu Apr 14 11:39:43 2016, MaxMem=    33554432 cpu:         0.0
 (Enter /usr/local/gau/g09/l9999.exe)

 Test job not archived.
 1\1\GINC-KALI\Freq\RB3LYP\6-31G\C3H7N1O2\ROOT\14-Apr-2016\0\\#P Geom=A
 llCheck Guess=TCheck SCRF=Check Test GenChk RB3LYP/6-31G Freq\\Ala-S-o
 pt-freq-tsa3-6-31g\\0,1\N,1.1202908885,0.8064041356,0.7979757775\H,1.9
 860574887,0.8749026019,1.3051587715\C,0.6613594454,-0.3688154219,0.290
 569506\H,-1.9579107031,-1.2271596622,-1.3365305824\C,1.5436988813,-1.5
 771822177,0.2851752122\C,-0.6613575488,-0.3846017999,-0.1586851076\H,0
 .987572366,-2.4503587077,-0.0564307615\H,2.3922142466,-1.4252512411,-0
 .3956836267\H,1.9558404301,-1.7856587664,1.2824586632\O,-1.4222791592,
 0.873027972,-0.2225490999\H,0.5345469147,1.6221935693,0.668533659\O,-1
 .0443342336,-1.4141961318,-1.0444082703\H,-1.4221878267,-0.0638769002,
 0.7378623189\\Version=ES64L-G09RevD.01\State=1-A\HF=-323.5135361\RMSD=
 3.646e-09\RMSF=5.385e-06\ZeroPoint=0.1013228\Thermal=0.1085861\Dipole=
 1.0566494,-0.2533066,0.8536523\DipoleDeriv=-0.6829523,-0.182291,0.1076
 056,-0.8447748,-0.6955002,-0.253789,-0.137922,-0.0789204,-0.7393118,0.
 2666055,0.0337928,-0.077764,0.0361773,0.2184576,-0.0094445,-0.1369122,
 -0.0146308,0.3178421,0.9963071,0.0873949,0.1335769,0.73701,0.5546824,0
 .3330819,0.2633432,0.0565906,0.176595,0.2102953,0.0779169,-0.0309335,0
 .1849204,0.3191379,0.0169303,0.0449058,-0.0299751,0.3850001,0.0131472,
 0.0821321,0.0251777,-0.0825512,-0.045934,-0.0783109,0.0588789,-0.05781
 ,0.1308827,-0.6841218,0.1330605,-0.0252521,0.1664845,0.507801,0.462300
 8,1.1538295,0.3186952,0.7149324,0.0738785,-0.0748848,-0.0230513,-0.017
 5503,0.0029557,-0.0235687,-0.010731,-0.0319768,0.0987831,-0.0940648,0.
 0251622,0.0814785,0.0106782,0.0388797,0.0450328,0.0978806,0.0216079,0.
 0277044,0.0117863,0.0514015,-0.0779157,0.0550762,0.0413238,0.0008048,-
 0.1249324,0.0579232,-0.1165714,-0.5619344,0.0681279,0.0018332,0.864474
 6,-0.7547721,0.0200153,-0.7032673,0.1213907,-0.5802045,0.1255124,0.073
 0751,-0.0839689,0.0327852,0.2366662,-0.0326648,-0.0618302,-0.0146615,0
 .341887,-0.2440062,-0.2229254,-0.0985191,-0.4114467,-0.7341133,-0.3262
 607,-0.4243576,-0.2384927,-0.8359536,0.5695474,-0.1519626,0.0677326,-0
 .7312833,0.3104153,-0.1541273,-0.0188854,-0.1097403,0.0784144\Polar=68
 .55636,-5.3366635,47.7176684,13.0564259,5.3768643,34.7120965\PG=C01 [X
 (C3H7N1O2)]\NImag=1\\0.71353564,-0.07237938,0.74588184,0.33664175,0.11
 696989,0.25509824,-0.35377961,-0.01228369,-0.19686756,0.36649685,-0.01
 059995,-0.07588205,-0.01996967,0.02009765,0.06772659,-0.19910263,-0.02
 114972,-0.12230555,0.20643593,0.02326285,0.12892908,-0.14999607,-0.054
 05698,-0.06627702,-0.00737348,-0.03326492,-0.01311390,0.66394078,-0.06
 995011,-0.31753590,-0.10188737,0.00109697,0.00169545,0.00154668,-0.031
 42520,0.66225288,-0.06599727,-0.10292965,-0.10279713,-0.00090217,-0.01
 635034,-0.00864584,0.19998507,0.14044472,0.29553327,0.00090203,0.00247
 851,0.00006901,-0.00001372,-0.00014435,-0.00007710,-0.00147360,-0.0026
 4009,-0.00151655,0.42317163,-0.00094710,0.00154503,-0.00027313,-0.0001
 9139,-0.00045205,-0.00026332,-0.00134280,-0.00724349,-0.00406536,-0.07
 190043,0.04674255,-0.00029604,0.00153213,0.00117419,-0.00038962,-0.000
 33772,0.00067236,0.00045086,-0.00351274,-0.00191899,0.14369190,-0.0008
 0078,0.06991026,0.01281819,-0.01008142,0.00027210,0.00018289,-0.000172
 58,0.00172288,-0.13588135,0.06336495,-0.00541123,0.00036524,0.00048990
 ,0.00018786,0.54164137,0.02276221,-0.03476570,-0.00119995,0.00019625,0
 .00225891,0.00140704,0.06109415,-0.17613831,-0.00463661,0.00011434,-0.
 00043532,0.00002980,0.04924985,0.54387766,0.00962962,-0.01545399,0.002
 44397,0.00135556,0.00019972,0.00016827,-0.01680139,-0.00196796,-0.0792
 8069,0.00036407,0.00033103,-0.00048988,0.01773842,0.01551673,0.5435794
 3,-0.03723654,-0.05046572,-0.02714798,0.00482598,0.00146522,0.00186143
 ,-0.28137211,0.02266828,-0.08622036,-0.01499396,-0.03765401,-0.0313837
 1,-0.01959320,0.00583180,0.00504784,0.51942630,-0.04039889,-0.00946931
 ,-0.01874610,0.00078579,-0.00531936,-0.00144042,-0.00673718,-0.0855902
 6,-0.00509289,0.00616668,-0.00327528,0.00326593,0.02713930,0.00384624,
 0.00394259,0.03100402,0.37204105,-0.01046455,0.02561566,0.01271329,-0.
 00669448,-0.00328425,0.00376844,-0.14954974,-0.03284154,-0.12062015,-0
 .00418109,-0.02269637,-0.01678615,-0.00216824,0.00246477,0.00762178,0.
 21500739,0.11066584,0.33666635,-0.00332134,0.00369800,-0.00098949,-0.0
 0020866,0.00003844,0.00005302,0.01275986,0.02020170,0.00804216,0.00005
 432,-0.00024072,-0.00007307,-0.12397254,-0.11845543,-0.04579424,-0.000
 47458,0.00113559,0.00156944,0.13401908,0.00501973,-0.00274669,0.001049
 31,0.00009259,0.00022262,0.00055664,-0.01776734,-0.02384457,-0.0093930
 9,-0.00029421,0.00062153,0.00009659,-0.11077307,-0.22610090,-0.0679291
 8,0.00052224,-0.00127636,-0.00254726,0.12227798,0.24891077,-0.00049489
 ,0.00015416,0.00142655,0.00023700,0.00038737,-0.00038348,0.00096854,-0
 .00023090,-0.00122124,0.00011733,-0.00017146,-0.00003358,-0.04499476,-
 0.07039450,-0.07710829,-0.00043113,0.00071186,0.00064761,0.04907299,0.
 07659685,0.07940742,0.00161401,-0.00121912,-0.00125348,-0.00006431,-0.
 00001443,0.00072043,-0.02021577,0.00031690,0.01114688,0.00004326,0.000
 09464,0.00019422,-0.19586992,-0.03144995,0.12355696,-0.00044036,0.0026
 8853,0.00190355,-0.01261879,-0.00161315,0.01199329,0.21839086,-0.00107
 309,0.00060335,0.00157591,0.00024780,-0.00017970,-0.00100514,0.0254187
 2,0.00154713,-0.01896928,-0.00015144,-0.00004179,0.00008449,-0.0297024
 6,-0.05325740,0.02246303,0.00135887,-0.00271575,-0.00105096,-0.0203310
 9,-0.00318750,0.01850051,0.02935171,0.05718973,-0.00046445,-0.00026513
 ,0.00074522,0.00040758,-0.00033665,-0.00064909,-0.00084577,-0.00043663
 ,0.00269365,-0.00006763,-0.00002598,0.00000909,0.12243984,0.02353388,-
 0.14542437,-0.00089455,0.00057966,-0.00109449,-0.00910052,-0.00189015,
 0.00695213,-0.13687301,-0.02685784,0.15774548,0.00091916,-0.00213960,0
 .00117091,0.00075197,0.00041211,-0.00038516,-0.01506888,0.00712792,-0.
 02046769,0.00010098,0.00029513,-0.00006464,-0.07906737,0.01456859,-0.0
 8489909,0.00335597,0.00159453,0.00057477,-0.00580119,0.00445396,-0.016
 11452,0.00929752,-0.00481713,0.02492081,0.08846762,-0.00004671,0.00239
 129,-0.00076593,-0.00079450,-0.00099674,-0.00000668,0.01617784,-0.0072
 2449,0.02756146,-0.00017018,0.00017462,-0.00012088,0.01567838,-0.05859
 870,0.04147303,-0.00274045,-0.00267086,-0.00226814,-0.00876567,0.00652
 112,-0.02551188,0.00164299,-0.00067080,0.00580592,-0.02232669,0.061214
 73,0.00057943,0.00024197,0.00112656,-0.00020098,0.00094915,-0.00029803
 ,-0.00074687,-0.00140861,0.00345951,0.00009135,0.00018623,0.00003778,-
 0.08476272,0.03963027,-0.25776473,0.00135338,-0.00021713,0.00012208,-0
 .00207851,0.00318157,-0.00903748,-0.00880556,0.00313401,-0.02079571,0.
 09486581,-0.04625195,0.28347513,0.00113947,0.00559961,0.00307405,-0.00
 191603,0.00167657,0.00203415,-0.03063156,0.03757623,-0.01400455,0.0008
 0817,0.00157682,0.00280235,-0.00100068,-0.00275616,-0.00445123,-0.0612
 0481,0.04095986,-0.02963679,0.00023147,-0.00008551,-0.00000883,-0.0007
 1286,0.00035888,0.00003221,-0.00160980,0.00194050,-0.00009734,0.105617
 70,0.00555816,0.02777228,0.00932484,-0.00436897,0.00176252,0.00054419,
 -0.02669747,-0.03114505,-0.01736873,0.00043180,0.00103368,0.00101819,-
 0.00232106,0.00263062,0.00138184,0.14685404,-0.16648966,-0.04208882,0.
 00008057,-0.00017992,0.00009788,0.00055322,0.00004094,-0.00006768,0.00
 101792,-0.00136961,0.00088851,-0.10556521,0.17979370,-0.00943052,-0.01
 628861,-0.01073947,0.00157369,0.00021292,0.00048663,0.03632826,0.01355
 624,0.01691423,0.00357673,0.00714056,0.00241240,-0.00256903,-0.0014928
 1,0.00581498,-0.12511404,0.05492862,0.00147886,-0.00037051,0.00063619,
 -0.00044517,-0.00099335,0.00124123,-0.00036870,0.00090258,-0.00041929,
 -0.00017851,0.03485424,0.00533939,0.01547182,-0.18585521,0.17403785,-0
 .05126918,-0.00763335,0.02159787,0.00103755,0.01860797,-0.00512380,0.0
 0420255,0.00020269,-0.00032083,0.00014636,0.00018200,-0.00207915,-0.00
 264357,-0.00940810,-0.00650288,0.00836161,0.00042563,-0.00044926,-0.00
 022215,-0.00018240,-0.00020240,-0.00006400,-0.00054547,0.00041611,-0.0
 0020301,0.00403676,0.01341964,-0.00349042,0.17694923,0.17657563,-0.310
 83543,0.02677752,-0.00898144,0.00934519,-0.00213490,0.01759031,-0.0302
 3723,0.00110436,-0.00016889,-0.00008897,-0.00002492,-0.00392535,-0.001
 31638,-0.00168590,0.00356435,-0.00391226,-0.00107482,0.00100830,-0.000
 66513,-0.00005132,0.00007890,0.00014958,-0.00010828,-0.00004901,0.0003
 0333,0.00020543,0.00197209,0.00100882,0.00219179,-0.18671924,0.3357520
 8,-0.05124193,0.02512286,-0.03856279,-0.00629762,0.01505846,-0.0016500
 5,0.01416366,-0.01098356,0.00821735,0.00002497,-0.00018614,-0.00026357
 ,-0.00323877,-0.00351371,0.00145452,-0.00384044,-0.00229191,-0.0006396
 2,0.00048403,-0.00101970,0.00047632,-0.00038631,0.00071624,0.00003531,
 0.00012788,-0.00030790,0.00002144,0.00270049,0.00345044,-0.00388388,0.
 04476853,-0.02641991,0.03464511,-0.00459483,0.00502157,-0.00117260,-0.
 00073869,-0.00175753,-0.00011526,-0.01543604,-0.03402135,-0.03311982,-
 0.40893787,0.11196923,-0.11338592,-0.00035113,-0.00003279,-0.00062817,
 -0.09101341,-0.04802843,-0.07009121,-0.00121779,-0.00113289,-0.0004012
 6,0.00003502,0.00010725,0.00032292,-0.00052989,-0.00089254,-0.00026456
 ,0.00418166,0.00601610,0.02156882,0.00095917,0.00034079,0.00001210,0.5
 1852234,-0.00155044,-0.00398612,-0.00286919,0.00121846,0.00038648,-0.0
 0123971,0.00097800,0.00466711,-0.00603460,0.06460377,-0.04295806,-0.00
 160174,0.00056139,-0.00239886,0.00107488,-0.01401973,-0.14076990,-0.06
 927518,-0.00035560,0.00123956,0.00025080,-0.00062992,0.00082720,0.0002
 1215,-0.00050064,0.00081746,-0.00033531,0.00051159,-0.03044007,-0.0259
 4012,0.00090820,0.00047339,0.00110275,-0.05278759,0.22334872,-0.007650
 57,-0.01201867,-0.00187044,0.00126324,-0.00024692,0.00002125,0.0075156
 8,-0.00629738,-0.00890863,-0.14256902,0.02253142,-0.05404974,0.0008236
 2,-0.00103330,-0.00069875,-0.05554893,-0.10047093,-0.12993266,-0.00069
 699,0.00046617,-0.00070894,-0.00093766,0.00012001,0.00005536,-0.000390
 93,0.00053944,-0.00012826,0.00926105,-0.00745157,0.01117579,-0.0017861
 3,0.00100595,-0.00084158,0.20118303,0.11409003,0.19868532,0.00385510,0
 .01179035,0.00374949,-0.00052984,0.00066591,-0.00107134,-0.03785976,-0
 .00919239,0.00426297,-0.00022916,-0.00182845,-0.00188056,0.00054652,0.
 00095629,-0.00247480,-0.01187118,-0.00980693,0.04536933,0.00012451,-0.
 00025107,0.00027838,0.00072373,-0.00056562,0.00018657,-0.00027063,-0.0
 0011907,0.00026958,-0.01893950,-0.03497874,0.04316357,0.00226109,-0.00
 128646,0.00272341,-0.00087854,0.00106249,-0.01046639,0.06306766,-0.012
 97006,-0.02297258,-0.00998612,0.00288448,-0.00056785,-0.00007750,0.050
 03286,0.00879673,0.01573001,0.00167447,0.00437753,0.00037166,0.0004921
 7,0.00039814,0.00065417,-0.10838892,0.04560169,0.03838107,-0.00029208,
 0.00048547,-0.00033937,0.00019968,-0.00030500,-0.00014328,0.00036291,0
 .00010866,-0.00020414,0.01623473,0.01558174,-0.04110611,-0.00898211,0.
 00002300,-0.00072790,0.01519816,-0.01120691,-0.01123425,0.04355371,-0.
 04032064,-0.00170796,-0.00153090,0.00154736,0.00007943,0.00045508,-0.0
 0011399,-0.01207739,0.00401906,-0.00342536,0.00047601,-0.00170670,-0.0
 0067416,-0.00003998,-0.00031161,-0.00031624,0.10731110,-0.04583511,-0.
 09394534,-0.00011830,0.00019606,0.00002815,-0.00026596,0.00004779,0.00
 009612,-0.00024073,0.00027282,-0.00003977,-0.00655980,0.04493151,-0.03
 813898,0.00116186,0.00021498,0.00099145,-0.00390806,-0.00943475,-0.012
 79870,-0.08411023,0.00868176,0.14678948\\0.00000349,-0.00000809,0.0000
 0023,0.00000132,0.00000203,-0.00000070,0.00001917,0.00000968,0.0000086
 4,-0.00000145,-0.00000460,0.00000230,-0.00000205,0.00000155,0.00000479
 ,-0.00001329,0.00000098,-0.00000072,0.00000029,0.00000039,0.00000184,-
 0.00000024,-0.00000079,0.00000213,0.00000091,0.00000019,0.00000187,-0.
 00000015,-0.00000286,-0.00001198,-0.00000238,0.00000659,-0.00000379,-0
 .00000279,-0.00000116,-0.00000090,-0.00000281,-0.00000392,-0.00000370\
 \\@


 FESTINA LENTE!
     - IMPERATOR AUGUSTUS 
 Job cpu time:       0 days  0 hours  1 minutes 11.2 seconds.
 File lengths (MBytes):  RWF=     13 Int=      0 D2E=      0 Chk=      2 Scr=      1
 Normal termination of Gaussian 09 at Thu Apr 14 11:39:43 2016.
