 Entering Link 1 = c:\G09w04\l1.exe PID=      5016.
  
 Copyright (c) 1988,1990,1992,1993,1995,1998,2003,2009,2010,
            Gaussian, Inc.  All Rights Reserved.
  
 This is part of the Gaussian(R) 09 program.  It is based on
 the Gaussian(R) 03 system (copyright 2003, Gaussian, Inc.),
 the Gaussian(R) 98 system (copyright 1998, Gaussian, Inc.),
 the Gaussian(R) 94 system (copyright 1995, Gaussian, Inc.),
 the Gaussian 92(TM) system (copyright 1992, Gaussian, Inc.),
 the Gaussian 90(TM) system (copyright 1990, Gaussian, Inc.),
 the Gaussian 88(TM) system (copyright 1988, Gaussian, Inc.),
 the Gaussian 86(TM) system (copyright 1986, Carnegie Mellon
 University), and the Gaussian 82(TM) system (copyright 1983,
 Carnegie Mellon University). Gaussian is a federally registered
 trademark of Gaussian, Inc.
  
 This software contains proprietary and confidential information,
 including trade secrets, belonging to Gaussian, Inc.
  
 This software is provided under written license and may be
 used, copied, transmitted, or stored only in accord with that
 written license.
  
 The following legend is applicable only to US Government
 contracts under FAR:
  
                    RESTRICTED RIGHTS LEGEND
  
 Use, reproduction and disclosure by the US Government is
 subject to restrictions as set forth in subparagraphs (a)
 and (c) of the Commercial Computer Software - Restricted
 Rights clause in FAR 52.227-19.
  
 Gaussian, Inc.
 340 Quinnipiac St., Bldg. 40, Wallingford CT 06492
  
  
 ---------------------------------------------------------------
 Warning -- This program may not be used in any manner that
 competes with the business of Gaussian, Inc. or will provide
 assistance to any competitor of Gaussian, Inc.  The licensee
 of this program is prohibited from giving any competitor of
 Gaussian, Inc. access to this program.  By using this program,
 the user acknowledges that Gaussian, Inc. is engaged in the
 business of creating and licensing software in the field of
 computational chemistry and represents and warrants to the
 licensee that it is not a competitor of Gaussian, Inc. and that
 it will not use this program in any manner prohibited above.
 ---------------------------------------------------------------
  

 Cite this work as:
 Gaussian 09, Revision B.01,
 M. J. Frisch, G. W. Trucks, H. B. Schlegel, G. E. Scuseria, 
 M. A. Robb, J. R. Cheeseman, G. Scalmani, V. Barone, B. Mennucci, 
 G. A. Petersson, H. Nakatsuji, M. Caricato, X. Li, H. P. Hratchian, 
 A. F. Izmaylov, J. Bloino, G. Zheng, J. L. Sonnenberg, M. Hada, 
 M. Ehara, K. Toyota, R. Fukuda, J. Hasegawa, M. Ishida, T. Nakajima, 
 Y. Honda, O. Kitao, H. Nakai, T. Vreven, J. A. Montgomery, Jr., 
 J. E. Peralta, F. Ogliaro, M. Bearpark, J. J. Heyd, E. Brothers, 
 K. N. Kudin, V. N. Staroverov, T. Keith, R. Kobayashi, J. Normand, 
 K. Raghavachari, A. Rendell, J. C. Burant, S. S. Iyengar, J. Tomasi, 
 M. Cossi, N. Rega, J. M. Millam, M. Klene, J. E. Knox, J. B. Cross, 
 V. Bakken, C. Adamo, J. Jaramillo, R. Gomperts, R. E. Stratmann, 
 O. Yazyev, A. J. Austin, R. Cammi, C. Pomelli, J. W. Ochterski, 
 R. L. Martin, K. Morokuma, V. G. Zakrzewski, G. A. Voth, 
 P. Salvador, J. J. Dannenberg, S. Dapprich, A. D. Daniels, 
 O. Farkas, J. B. Foresman, J. V. Ortiz, J. Cioslowski, 
 and D. J. Fox, Gaussian, Inc., Wallingford CT, 2010.
 
 ******************************************
 Gaussian 09:  IA32W-G09RevB.01 12-Aug-2010
                16-Apr-2016 
 ******************************************
 %chk=Ala-S-opt-freq-cpcm-w-tsa3-6-311++gdp.chk
 ----------------------------------------------------------------------
 #p opt=(calcfc,ts) freq rb3lyp/6-311++g(d,p) scrf=(cpcm,solvent=water)
  iop(1/11=1) nosymm
 ----------------------------------------------------------------------
 1/5=1,10=4,11=1,14=-1,18=20,26=3,38=1/1,3;
 2/9=110,12=2,15=1,17=6,18=5,40=1/2;
 3/5=4,6=6,7=1111,11=2,16=1,25=1,30=1,70=2101,71=2,72=1,74=-5,116=1/1,2,3;
 4//1;
 5/5=2,38=5,53=1/2;
 8/6=4,10=90,11=11/1;
 11/6=1,8=1,9=11,15=111,16=1,31=1/1,2,10;
 10/6=1,7=6,13=1,31=1/2;
 6/7=2,8=2,9=2,10=2,28=1/1;
 7/10=1,18=20,25=1,30=1/1,2,3,16;
 1/5=1,10=4,11=1,14=-1,18=20/3(2);
 2/9=110,15=1/2;
 99//99;
 2/9=110,15=1/2;
 3/5=4,6=6,7=1111,11=2,16=1,25=1,30=1,70=2105,71=1,72=1,74=-5,116=1/1,2,3;
 4/5=5,16=3/1;
 5/5=2,38=5,53=1/2;
 7/30=1/1,2,3,16;
 1/5=1,11=1,14=-1,18=20/3(-5);
 2/9=110,15=1/2;
 6/7=2,8=2,9=2,10=2,19=2,28=1/1;
 99/9=1/99;
 Leave Link    1 at Sat Apr 16 14:37:37 2016, MaxMem=          0 cpu:       1.0
 (Enter c:\G09w04\l101.exe)
 -------------------------------------
 Ala-S-opt-freq-cpcm-w-tsa3-6-311++gdp
 -------------------------------------
 Symbolic Z-matrix:
 Charge =  0 Multiplicity = 1
 N                     1.1517   -1.3481    0.10456 
 H                     2.12872  -1.57252   0.02366 
 C                     0.68158  -0.07731  -0.01074 
 H                    -2.23082   1.24524   0.10579 
 C                     1.63696   1.0735   -0.05066 
 C                    -0.7015    0.07095  -0.1402 
 H                     1.10244   2.00238  -0.25033 
 H                     2.14954   1.1757    0.91549 
 H                     2.40986   0.9354   -0.81972 
 O                    -1.57642  -1.10071   0.02242 
 H                     0.46673  -2.07948   0.25041 
 O                    -1.25865   1.33508   0.14758 
 H                    -1.11002  -0.54777  -1.10759 
 
 NAtoms=     13 NQM=     13 NQMF=      0 NMic=      0 NMicF=      0 NTot=     13.
                    Isotopes and Nuclear Properties:
 (Nuclear quadrupole moments (NQMom) in fm**2, nuclear magnetic moments (NMagM)
  in nuclear magnetons)

  Atom         1           2           3           4           5           6           7           8           9          10
 IAtWgt=          14           1          12           1          12          12           1           1           1          16
 AtmWgt=  14.0030740   1.0078250  12.0000000   1.0078250  12.0000000  12.0000000   1.0078250   1.0078250   1.0078250  15.9949146
 NucSpn=           2           1           0           1           0           0           1           1           1           0
 AtZEff=   0.0000000   0.0000000   0.0000000   0.0000000   0.0000000   0.0000000   0.0000000   0.0000000   0.0000000   0.0000000
 NQMom=    2.0440000   0.0000000   0.0000000   0.0000000   0.0000000   0.0000000   0.0000000   0.0000000   0.0000000   0.0000000
 NMagM=    0.4037610   2.7928460   0.0000000   2.7928460   0.0000000   0.0000000   2.7928460   2.7928460   2.7928460   0.0000000

  Atom        11          12          13
 IAtWgt=           1          16           1
 AtmWgt=   1.0078250  15.9949146   1.0078250
 NucSpn=           1           0           1
 AtZEff=   0.0000000   0.0000000   0.0000000
 NQMom=    0.0000000   0.0000000   0.0000000
 NMagM=    2.7928460   0.0000000   2.7928460
 Leave Link  101 at Sat Apr 16 14:37:37 2016, MaxMem=   33554432 cpu:       0.0
 (Enter c:\G09w04\l103.exe)

 GradGradGradGradGradGradGradGradGradGradGradGradGradGradGradGradGradGrad
 Berny optimization.
 Initialization pass.
                           ----------------------------
                           !    Initial Parameters    !
                           ! (Angstroms and Degrees)  !
 --------------------------                            --------------------------
 ! Name  Definition              Value          Derivative Info.                !
 --------------------------------------------------------------------------------
 ! R1    R(1,2)                  1.0057         calculate D2E/DX2 analytically  !
 ! R2    R(1,3)                  1.3599         calculate D2E/DX2 analytically  !
 ! R3    R(1,11)                 1.0126         calculate D2E/DX2 analytically  !
 ! R4    R(3,5)                  1.4962         calculate D2E/DX2 analytically  !
 ! R5    R(3,6)                  1.397          calculate D2E/DX2 analytically  !
 ! R6    R(4,12)                 0.9772         calculate D2E/DX2 analytically  !
 ! R7    R(5,7)                  1.0901         calculate D2E/DX2 analytically  !
 ! R8    R(5,8)                  1.0985         calculate D2E/DX2 analytically  !
 ! R9    R(5,9)                  1.099          calculate D2E/DX2 analytically  !
 ! R10   R(6,10)                 1.4713         calculate D2E/DX2 analytically  !
 ! R11   R(6,12)                 1.4111         calculate D2E/DX2 analytically  !
 ! R12   R(6,13)                 1.2188         calculate D2E/DX2 analytically  !
 ! R13   R(10,13)                1.3417         calculate D2E/DX2 analytically  !
 ! A1    A(2,1,3)              122.517          calculate D2E/DX2 analytically  !
 ! A2    A(2,1,11)             120.5008         calculate D2E/DX2 analytically  !
 ! A3    A(3,1,11)             116.9575         calculate D2E/DX2 analytically  !
 ! A4    A(1,3,5)              120.0185         calculate D2E/DX2 analytically  !
 ! A5    A(1,3,6)              116.6983         calculate D2E/DX2 analytically  !
 ! A6    A(5,3,6)              123.234          calculate D2E/DX2 analytically  !
 ! A7    A(3,5,7)              110.3142         calculate D2E/DX2 analytically  !
 ! A8    A(3,5,8)              110.2462         calculate D2E/DX2 analytically  !
 ! A9    A(3,5,9)              111.7813         calculate D2E/DX2 analytically  !
 ! A10   A(7,5,8)              108.0964         calculate D2E/DX2 analytically  !
 ! A11   A(7,5,9)              108.8876         calculate D2E/DX2 analytically  !
 ! A12   A(8,5,9)              107.3978         calculate D2E/DX2 analytically  !
 ! A13   A(3,6,10)             119.6019         calculate D2E/DX2 analytically  !
 ! A14   A(3,6,12)             117.8436         calculate D2E/DX2 analytically  !
 ! A15   A(3,6,13)             110.5798         calculate D2E/DX2 analytically  !
 ! A16   A(10,6,12)            117.1335         calculate D2E/DX2 analytically  !
 ! A17   A(10,6,13)             58.9464         calculate D2E/DX2 analytically  !
 ! A18   A(12,6,13)            118.966          calculate D2E/DX2 analytically  !
 ! A19   A(4,12,6)             107.5604         calculate D2E/DX2 analytically  !
 ! D1    D(2,1,3,5)             -9.6716         calculate D2E/DX2 analytically  !
 ! D2    D(2,1,3,6)            167.859          calculate D2E/DX2 analytically  !
 ! D3    D(11,1,3,5)           172.1261         calculate D2E/DX2 analytically  !
 ! D4    D(11,1,3,6)           -10.3433         calculate D2E/DX2 analytically  !
 ! D5    D(1,3,5,7)            174.0445         calculate D2E/DX2 analytically  !
 ! D6    D(1,3,5,8)            -66.643          calculate D2E/DX2 analytically  !
 ! D7    D(1,3,5,9)             52.736          calculate D2E/DX2 analytically  !
 ! D8    D(6,3,5,7)             -3.3179         calculate D2E/DX2 analytically  !
 ! D9    D(6,3,5,8)            115.9947         calculate D2E/DX2 analytically  !
 ! D10   D(6,3,5,9)           -124.6264         calculate D2E/DX2 analytically  !
 ! D11   D(1,3,6,10)             7.6208         calculate D2E/DX2 analytically  !
 ! D12   D(1,3,6,12)           160.9112         calculate D2E/DX2 analytically  !
 ! D13   D(1,3,6,13)           -57.5192         calculate D2E/DX2 analytically  !
 ! D14   D(5,3,6,10)          -174.9355         calculate D2E/DX2 analytically  !
 ! D15   D(5,3,6,12)           -21.6452         calculate D2E/DX2 analytically  !
 ! D16   D(5,3,6,13)           119.9245         calculate D2E/DX2 analytically  !
 ! D17   D(3,6,12,4)          -173.8774         calculate D2E/DX2 analytically  !
 ! D18   D(10,6,12,4)          -19.926          calculate D2E/DX2 analytically  !
 ! D19   D(13,6,12,4)           47.8122         calculate D2E/DX2 analytically  !
 --------------------------------------------------------------------------------
 Trust Radius=3.00D-01 FncErr=1.00D-07 GrdErr=1.00D-06
 Number of steps in this run=     61 maximum allowed number of steps=    100.
 Search for a saddle point of order  1.
 GradGradGradGradGradGradGradGradGradGradGradGradGradGradGradGradGradGrad

 Leave Link  103 at Sat Apr 16 14:37:37 2016, MaxMem=   33554432 cpu:       0.0
 (Enter c:\G09w04\l202.exe)
                          Input orientation:                          
 ---------------------------------------------------------------------
 Center     Atomic      Atomic             Coordinates (Angstroms)
 Number     Number       Type             X           Y           Z
 ---------------------------------------------------------------------
      1          7           0        1.151696   -1.348103    0.104560
      2          1           0        2.128716   -1.572523    0.023661
      3          6           0        0.681580   -0.077309   -0.010743
      4          1           0       -2.230821    1.245235    0.105794
      5          6           0        1.636962    1.073497   -0.050659
      6          6           0       -0.701503    0.070951   -0.140204
      7          1           0        1.102442    2.002383   -0.250330
      8          1           0        2.149541    1.175702    0.915491
      9          1           0        2.409857    0.935401   -0.819723
     10          8           0       -1.576421   -1.100709    0.022417
     11          1           0        0.466731   -2.079481    0.250409
     12          8           0       -1.258647    1.335075    0.147582
     13          1           0       -1.110022   -0.547765   -1.107585
 ---------------------------------------------------------------------
                    Distance matrix (angstroms):
                    1          2          3          4          5
     1  N    0.000000
     2  H    1.005722   0.000000
     3  C    1.359861   2.081118   0.000000
     4  H    4.262256   5.191538   3.200747   0.000000
     5  C    2.474616   2.692353   1.496229   3.874754   0.000000
     6  C    2.346907   3.276888   1.397018   1.943778   2.545886
     7  H    3.369589   3.729378   2.135333   3.436676   1.090142
     8  H    2.832472   2.889383   2.140760   4.455111   1.098467
     9  H    2.766163   2.660831   2.160317   4.742201   1.099044
    10  O    2.740543   3.735057   2.479318   2.436933   3.880508
    11  H    1.012602   1.752317   2.030530   4.283858   3.376589
    12  O    3.607083   4.465838   2.405073   0.977210   2.914151
    13  H    2.687974   3.580401   2.152726   2.437894   3.360283
                    6          7          8          9         10
     6  C    0.000000
     7  H    2.645142   0.000000
     8  H    3.234721   1.771710   0.000000
     9  H    3.299937   1.781009   1.771010   0.000000
    10  O    1.471297   4.108513   4.456728   4.554707   0.000000
    11  H    2.478247   4.161308   3.724299   3.743052   2.276938
    12  O    1.411113   2.485634   3.497260   3.814884   2.459612
    13  H    1.218820   3.483265   4.205702   3.830430   1.341708
                   11         12         13
    11  H    0.000000
    12  O    3.827100   0.000000
    13  H    2.583883   2.267735   0.000000
 Symmetry turned off by external request.
 Stoichiometry    C3H7NO2
 Framework group  C1[X(C3H7NO2)]
 Deg. of freedom    33
 Full point group                 C1      NOp   1
 Rotational constants (GHZ):      4.7691369      3.2927484      2.0044422
 Leave Link  202 at Sat Apr 16 14:37:37 2016, MaxMem=   33554432 cpu:       0.0
 (Enter c:\G09w04\l301.exe)
 Standard basis: 6-311++G(d,p) (5D, 7F)
 Ernie: Thresh=  0.10000D-02 Tol=  0.10000D-05 Strict=F.
 Integral buffers will be    262144 words long.
 Raffenetti 2 integral format.
 Two-electron integral symmetry is turned off.
   181 basis functions,   279 primitive gaussians,   187 cartesian basis functions
    24 alpha electrons       24 beta electrons
       nuclear repulsion energy       245.1143273938 Hartrees.
 IExCor=  402 DFT=T Ex+Corr=B3LYP ExCW=0 ScaHFX=  0.200000
 ScaDFX=  0.800000  0.720000  1.000000  0.810000 ScalE2=  1.000000  1.000000
 IRadAn=      0 IRanWt=     -1 IRanGd=            0 ICorTp=0
 NAtoms=   13 NActive=   13 NUniq=   13 SFac= 1.00D+00 NAtFMM=   50 NAOKFM=F Big=F
 ------------------------------------------------------------------------------
 Polarizable Continuum Model (PCM)
 =================================
 Model                : C-PCM.
 Atomic radii         : UFF (Universal Force Field).
 Polarization charges : Total charges.
 Charge compensation  : None.
 Solution method      : Matrix inversion.
 Cavity type          : Scaled VdW (van der Waals Surface) (Alpha=1.100).
 Cavity algorithm     : GePol (No added spheres)
                        Default sphere list used, NSphG=   13.
                        Lebedev-Laikov grids with approx.  5.0 points / Ang**2.
                        Smoothing algorithm: Karplus/York (Gamma=1.0000).
                        Polarization charges: spherical gaussians, with
                                              point-specific exponents (IZeta= 3).
                        Self-potential: point-specific (ISelfS= 7).
                        Self-field    : sphere-specific E.n sum rule (ISelfD= 2).
 1st derivatives      : Analytical E(r).r(x)/FMM algorithm (CHGder, D1EAlg=3).
                        Cavity 1st derivative terms included.
 2nd derivatives      : Analytical E(r).r(xy)/FMM algorithm (CHGder, D2EAlg=3).
                        Cavity 2nd derivative terms included.
 Solvent              : Water, Eps=  78.355300 Eps(inf)=   1.777849
 ------------------------------------------------------------------------------
 Spheres list:
 ISph  on   Nord    Re0     Alpha      Xe            Ye            Ze
    1   N      1    1.830   1.100      1.151696     -1.348103      0.104560
    2   H      2    1.443   1.100      2.128716     -1.572523      0.023661
    3   C      3    1.926   1.100      0.681580     -0.077309     -0.010743
    4   H      4    1.443   1.100     -2.230821      1.245235      0.105794
    5   C      5    1.926   1.100      1.636962      1.073497     -0.050659
    6   C      6    1.926   1.100     -0.701503      0.070951     -0.140204
    7   H      7    1.443   1.100      1.102442      2.002383     -0.250330
    8   H      8    1.443   1.100      2.149541      1.175702      0.915491
    9   H      9    1.443   1.100      2.409857      0.935401     -0.819723
   10   O     10    1.750   1.100     -1.576421     -1.100709      0.022417
   11   H     11    1.443   1.100      0.466731     -2.079481      0.250409
   12   O     12    1.750   1.100     -1.258647      1.335075      0.147582
   13   H     13    1.443   1.100     -1.110022     -0.547765     -1.107585
 ------------------------------------------------------------------------------
 GePol: Number of generator spheres                  =      13
 GePol: Total number of spheres                      =      13
 GePol: Number of exposed spheres                    =      13 (100.00%)
 GePol: Number of points                             =    1127
 GePol: Average weight of points                     =       0.13
 GePol: Minimum weight of points                     =   0.77D-09
 GePol: Maximum weight of points                     =    0.20577
 GePol: Number of points with low weight             =      75
 GePol: Fraction of low-weight points (<1% of avg)   =       6.65%
 GePol: Cavity surface area                          =    150.265 Ang**2
 GePol: Cavity volume                                =    138.136 Ang**3
 Leave Link  301 at Sat Apr 16 14:37:37 2016, MaxMem=   33554432 cpu:       0.0
 (Enter c:\G09w04\l302.exe)
 NPDir=0 NMtPBC=     1 NCelOv=     1 NCel=       1 NClECP=     1 NCelD=      1
         NCelK=      1 NCelE2=     1 NClLst=     1 CellRange=     0.0.
 One-electron integrals computed using PRISM.
 NBasis=   181 RedAO= T  NBF=   181
 NBsUse=   181 1.00D-06 NBFU=   181
 Precomputing XC quadrature grid using
 IXCGrd= 2 IRadAn=           0 IRanWt=          -1 IRanGd=           0 AccXCQ= 0.00D+00.
 NRdTot=     842 NPtTot=      107350 NUsed=      111282 NTot=      111298
 NSgBfM=   187   187   187   187   187 NAtAll=    13    13.
 Leave Link  302 at Sat Apr 16 14:37:38 2016, MaxMem=   33554432 cpu:       1.0
 (Enter c:\G09w04\l303.exe)
 DipDrv:  MaxL=1.
 Leave Link  303 at Sat Apr 16 14:37:38 2016, MaxMem=   33554432 cpu:       0.0
 (Enter c:\G09w04\l401.exe)
 Harris functional with IExCor=  402 diagonalized for initial guess.
 ExpMin= 3.60D-02 ExpMax= 8.59D+03 ExpMxC= 1.30D+03 IAcc=3 IRadAn=         0 AccDes= 0.00D+00
 HarFok:  IExCor=  402 AccDes= 0.00D+00 IRadAn=         0 IDoV= 1
 ScaDFX=  1.000000  1.000000  1.000000  1.000000
 FoFCou: FMM=F IPFlag=           0 FMFlag=      100000 FMFlg1=           0
         NFxFlg=           0 DoJE=T BraDBF=F KetDBF=T FulRan=T
         Omega=  0.000000  0.000000  1.000000  0.000000  0.000000 ICntrl=     500 IOpCl=  0
         NMat0=    1 NMatS0=    1 NMatT0=    0 NMatD0=    1 NMtDS0=    0 NMtDT0=    0
         I1Cent=           4 NGrid=           0.
 Symmetry not used in FoFCou.
 Harris En= -323.747828556437    
 Leave Link  401 at Sat Apr 16 14:37:44 2016, MaxMem=   33554432 cpu:       6.0
 (Enter c:\G09w04\l502.exe)
 Closed shell SCF:
 Requested convergence on RMS density matrix=1.00D-08 within 128 cycles.
 Requested convergence on MAX density matrix=1.00D-06.
 Requested convergence on             energy=1.00D-06.
 No special actions if energy rises.
 Using DIIS extrapolation, IDIIS=  1040.
 Two-electron integral symmetry not used.
       111165 words used for storage of precomputed grid.
 IEnd=      236371 IEndB=      236371 NGot=    33554432 MDV=    33369858
 LenX=    33369858 LenY=    33334448
 Fock matrices will be formed incrementally for  20 cycles.

 Cycle   1  Pass 1  IDiag  1:
 FoFCou: FMM=F IPFlag=           0 FMFlag=      100000 FMFlg1=           0
         NFxFlg=           0 DoJE=F BraDBF=F KetDBF=F FulRan=T
         Omega=  0.000000  0.000000  1.000000  0.000000  0.000000 ICntrl=       0 IOpCl=  0
         NMat0=    1 NMatS0=    1 NMatT0=    0 NMatD0=    1 NMtDS0=    0 NMtDT0=    0
         I1Cent=           0 NGrid=           0.
 Symmetry not used in FoFCou.
 E= -323.559207526997    
 DIIS: error= 2.59D-02 at cycle   1 NSaved=   1.
 NSaved= 1 IEnMin= 1 EnMin= -323.559207526997     IErMin= 1 ErrMin= 2.59D-02
 ErrMax= 2.59D-02 EMaxC= 1.00D-01 BMatC= 2.42D-01 BMatP= 2.42D-01
 IDIUse=3 WtCom= 7.41D-01 WtEn= 2.59D-01
 Coeff-Com:  0.100D+01
 Coeff-En:   0.100D+01
 Coeff:      0.100D+01
 Gap=     0.112 Goal=   None    Shift=    0.000
 GapD=    0.112 DampG=1.000 DampE=0.500 DampFc=0.5000 IDamp=-1.
 Damping current iteration by 5.00D-01
 RMSDP=5.07D-02 MaxDP=5.07D+00              OVMax= 3.12D-01

 Cycle   2  Pass 1  IDiag  1:
 RMSU=  1.34D-02    CP:  1.74D+00
 E= -323.590604369758     Delta-E=       -0.031396842761 Rises=F Damp=T
 DIIS: error= 1.13D-02 at cycle   2 NSaved=   2.
 NSaved= 2 IEnMin= 2 EnMin= -323.590604369758     IErMin= 2 ErrMin= 1.13D-02
 ErrMax= 1.13D-02 EMaxC= 1.00D-01 BMatC= 4.41D-02 BMatP= 2.42D-01
 IDIUse=3 WtCom= 8.87D-01 WtEn= 1.13D-01
 Coeff-Com:  0.246D+00 0.754D+00
 Coeff-En:   0.416D+00 0.584D+00
 Coeff:      0.265D+00 0.735D+00
 Gap=     0.149 Goal=   None    Shift=    0.000
 RMSDP=1.85D-02 MaxDP=1.77D+00 DE=-3.14D-02 OVMax= 3.02D-01

 Cycle   3  Pass 1  IDiag  1:
 RMSU=  2.98D-03    CP:  1.20D+00  3.06D-01
 E= -323.687202841892     Delta-E=       -0.096598472133 Rises=F Damp=F
 DIIS: error= 1.60D-02 at cycle   3 NSaved=   3.
 NSaved= 3 IEnMin= 3 EnMin= -323.687202841892     IErMin= 2 ErrMin= 1.13D-02
 ErrMax= 1.60D-02 EMaxC= 1.00D-01 BMatC= 6.03D-02 BMatP= 4.41D-02
 IDIUse=2 WtCom= 0.00D+00 WtEn= 1.00D+00
 Coeff-En:   0.000D+00 0.639D-01 0.936D+00
 Coeff:      0.000D+00 0.639D-01 0.936D+00
 Gap=     0.109 Goal=   None    Shift=    0.000
 RMSDP=8.70D-03 MaxDP=3.23D-01 DE=-9.66D-02 OVMax= 4.42D-01

 Cycle   4  Pass 1  IDiag  1:
 RMSU=  4.60D-03    CP:  1.21D+00  3.68D-01 -3.40D-01
 E= -323.329813640035     Delta-E=        0.357389201857 Rises=F Damp=F
 DIIS: error= 5.45D-02 at cycle   4 NSaved=   4.
 NSaved= 4 IEnMin= 3 EnMin= -323.687202841892     IErMin= 2 ErrMin= 1.13D-02
 ErrMax= 5.45D-02 EMaxC= 1.00D-01 BMatC= 4.57D-01 BMatP= 4.41D-02
 IDIUse=2 WtCom= 0.00D+00 WtEn= 1.00D+00
 Coeff-En:   0.000D+00 0.000D+00 0.819D+00 0.181D+00
 Coeff:      0.000D+00 0.000D+00 0.819D+00 0.181D+00
 Gap=     0.131 Goal=   None    Shift=    0.000
 RMSDP=5.35D-03 MaxDP=2.44D-01 DE= 3.57D-01 OVMax= 2.66D-01

 Cycle   5  Pass 1  IDiag  1:
 RMSU=  1.09D-03    CP:  1.22D+00  3.63D-01  5.52D-01  4.66D-01
 E= -323.703307868159     Delta-E=       -0.373494228124 Rises=F Damp=F
 DIIS: error= 1.58D-02 at cycle   5 NSaved=   5.
 NSaved= 5 IEnMin= 5 EnMin= -323.703307868159     IErMin= 2 ErrMin= 1.13D-02
 ErrMax= 1.58D-02 EMaxC= 1.00D-01 BMatC= 4.23D-02 BMatP= 4.41D-02
 IDIUse=3 WtCom= 8.42D-01 WtEn= 1.58D-01
 Coeff-Com:  0.441D-02 0.141D-01 0.371D+00-0.822D-01 0.693D+00
 Coeff-En:   0.000D+00 0.000D+00 0.436D+00 0.000D+00 0.564D+00
 Coeff:      0.371D-02 0.118D-01 0.381D+00-0.692D-01 0.673D+00
 Gap=     0.140 Goal=   None    Shift=    0.000
 RMSDP=1.85D-03 MaxDP=5.41D-02 DE=-3.73D-01 OVMax= 9.85D-02

 Cycle   6  Pass 1  IDiag  1:
 RMSU=  1.64D-04    CP:  1.21D+00  3.44D-01  8.10D-01  2.57D-01  7.52D-01
 E= -323.739235764277     Delta-E=       -0.035927896118 Rises=F Damp=F
 DIIS: error= 8.32D-04 at cycle   6 NSaved=   6.
 NSaved= 6 IEnMin= 6 EnMin= -323.739235764277     IErMin= 6 ErrMin= 8.32D-04
 ErrMax= 8.32D-04 EMaxC= 1.00D-01 BMatC= 9.04D-05 BMatP= 4.23D-02
 IDIUse=3 WtCom= 9.92D-01 WtEn= 8.32D-03
 Coeff-Com:  0.126D-03 0.637D-02 0.134D+00-0.444D-01 0.284D+00 0.620D+00
 Coeff-En:   0.000D+00 0.000D+00 0.000D+00 0.000D+00 0.000D+00 0.100D+01
 Coeff:      0.125D-03 0.632D-02 0.133D+00-0.440D-01 0.282D+00 0.623D+00
 Gap=     0.141 Goal=   None    Shift=    0.000
 RMSDP=1.44D-04 MaxDP=9.36D-03 DE=-3.59D-02 OVMax= 5.71D-03

 Cycle   7  Pass 1  IDiag  1:
 RMSU=  7.13D-05    CP:  1.22D+00  3.47D-01  8.22D-01  2.57D-01  7.82D-01
                    CP:  8.75D-01
 E= -323.739301002661     Delta-E=       -0.000065238384 Rises=F Damp=F
 DIIS: error= 3.25D-04 at cycle   7 NSaved=   7.
 NSaved= 7 IEnMin= 7 EnMin= -323.739301002661     IErMin= 7 ErrMin= 3.25D-04
 ErrMax= 3.25D-04 EMaxC= 1.00D-01 BMatC= 2.94D-05 BMatP= 9.04D-05
 IDIUse=3 WtCom= 9.97D-01 WtEn= 3.25D-03
 Coeff-Com:  0.110D-02-0.276D-04 0.319D-01-0.109D-01 0.565D-01 0.325D+00
 Coeff-Com:  0.596D+00
 Coeff-En:   0.000D+00 0.000D+00 0.000D+00 0.000D+00 0.000D+00 0.990D-01
 Coeff-En:   0.901D+00
 Coeff:      0.110D-02-0.275D-04 0.318D-01-0.109D-01 0.563D-01 0.324D+00
 Coeff:      0.597D+00
 Gap=     0.141 Goal=   None    Shift=    0.000
 RMSDP=6.45D-05 MaxDP=2.69D-03 DE=-6.52D-05 OVMax= 1.19D-03

 Cycle   8  Pass 1  IDiag  1:
 RMSU=  2.90D-05    CP:  1.22D+00  3.46D-01  8.30D-01  2.54D-01  7.79D-01
                    CP:  9.15D-01  7.03D-01
 E= -323.739322022696     Delta-E=       -0.000021020035 Rises=F Damp=F
 DIIS: error= 1.04D-04 at cycle   8 NSaved=   8.
 NSaved= 8 IEnMin= 8 EnMin= -323.739322022696     IErMin= 8 ErrMin= 1.04D-04
 ErrMax= 1.04D-04 EMaxC= 1.00D-01 BMatC= 2.75D-06 BMatP= 2.94D-05
 IDIUse=3 WtCom= 9.99D-01 WtEn= 1.04D-03
 Coeff-Com:  0.759D-03-0.252D-02 0.276D-02-0.715D-04-0.419D-02 0.116D+00
 Coeff-Com:  0.337D+00 0.550D+00
 Coeff-En:   0.000D+00 0.000D+00 0.000D+00 0.000D+00 0.000D+00 0.000D+00
 Coeff-En:   0.000D+00 0.100D+01
 Coeff:      0.758D-03-0.251D-02 0.276D-02-0.714D-04-0.418D-02 0.116D+00
 Coeff:      0.337D+00 0.550D+00
 Gap=     0.141 Goal=   None    Shift=    0.000
 RMSDP=2.52D-05 MaxDP=1.48D-03 DE=-2.10D-05 OVMax= 8.21D-04

 Cycle   9  Pass 1  IDiag  1:
 RMSU=  6.62D-06    CP:  1.22D+00  3.46D-01  8.31D-01  2.54D-01  7.81D-01
                    CP:  9.36D-01  7.71D-01  8.77D-01
 E= -323.739324175890     Delta-E=       -0.000002153194 Rises=F Damp=F
 DIIS: error= 1.79D-05 at cycle   9 NSaved=   9.
 NSaved= 9 IEnMin= 9 EnMin= -323.739324175890     IErMin= 9 ErrMin= 1.79D-05
 ErrMax= 1.79D-05 EMaxC= 1.00D-01 BMatC= 8.54D-08 BMatP= 2.75D-06
 IDIUse=1 WtCom= 1.00D+00 WtEn= 0.00D+00
 Coeff-Com:  0.247D-03-0.832D-03-0.139D-02 0.643D-03-0.540D-02 0.301D-01
 Coeff-Com:  0.947D-01 0.219D+00 0.663D+00
 Coeff:      0.247D-03-0.832D-03-0.139D-02 0.643D-03-0.540D-02 0.301D-01
 Coeff:      0.947D-01 0.219D+00 0.663D+00
 Gap=     0.141 Goal=   None    Shift=    0.000
 RMSDP=8.44D-06 MaxDP=7.73D-04 DE=-2.15D-06 OVMax= 1.14D-04

 Cycle  10  Pass 1  IDiag  1:
 RMSU=  1.77D-06    CP:  1.22D+00  3.46D-01  8.31D-01  2.54D-01  7.81D-01
                    CP:  9.40D-01  7.85D-01  9.13D-01  8.94D-01
 E= -323.739324218794     Delta-E=       -0.000000042905 Rises=F Damp=F
 DIIS: error= 1.39D-05 at cycle  10 NSaved=  10.
 NSaved=10 IEnMin=10 EnMin= -323.739324218794     IErMin=10 ErrMin= 1.39D-05
 ErrMax= 1.39D-05 EMaxC= 1.00D-01 BMatC= 3.59D-08 BMatP= 8.54D-08
 IDIUse=1 WtCom= 1.00D+00 WtEn= 0.00D+00
 Coeff-Com:  0.232D-04-0.120D-03-0.123D-02 0.342D-03-0.230D-02 0.631D-02
 Coeff-Com:  0.143D-01 0.586D-01 0.351D+00 0.573D+00
 Coeff:      0.232D-04-0.120D-03-0.123D-02 0.342D-03-0.230D-02 0.631D-02
 Coeff:      0.143D-01 0.586D-01 0.351D+00 0.573D+00
 Gap=     0.141 Goal=   None    Shift=    0.000
 RMSDP=2.99D-06 MaxDP=2.98D-04 DE=-4.29D-08 OVMax= 3.42D-05

 Cycle  11  Pass 1  IDiag  1:
 RMSU=  5.07D-07    CP:  1.22D+00  3.46D-01  8.31D-01  2.54D-01  7.81D-01
                    CP:  9.42D-01  7.87D-01  9.26D-01  9.32D-01  1.11D+00
 E= -323.739324245611     Delta-E=       -0.000000026816 Rises=F Damp=F
 DIIS: error= 6.08D-06 at cycle  11 NSaved=  11.
 NSaved=11 IEnMin=11 EnMin= -323.739324245611     IErMin=11 ErrMin= 6.08D-06
 ErrMax= 6.08D-06 EMaxC= 1.00D-01 BMatC= 6.83D-09 BMatP= 3.59D-08
 IDIUse=1 WtCom= 1.00D+00 WtEn= 0.00D+00
 Coeff-Com: -0.551D-04 0.989D-04-0.438D-03 0.621D-04-0.477D-04-0.136D-02
 Coeff-Com: -0.117D-01-0.125D-01 0.632D-01 0.246D+00 0.716D+00
 Coeff:     -0.551D-04 0.989D-04-0.438D-03 0.621D-04-0.477D-04-0.136D-02
 Coeff:     -0.117D-01-0.125D-01 0.632D-01 0.246D+00 0.716D+00
 Gap=     0.141 Goal=   None    Shift=    0.000
 RMSDP=1.46D-06 MaxDP=1.41D-04 DE=-2.68D-08 OVMax= 2.40D-05

 Cycle  12  Pass 1  IDiag  1:
 RMSU=  2.11D-07    CP:  1.22D+00  3.46D-01  8.32D-01  2.54D-01  7.82D-01
                    CP:  9.43D-01  7.87D-01  9.34D-01  9.68D-01  1.16D+00
                    CP:  1.15D+00
 E= -323.739324251239     Delta-E=       -0.000000005628 Rises=F Damp=F
 DIIS: error= 9.45D-07 at cycle  12 NSaved=  12.
 NSaved=12 IEnMin=12 EnMin= -323.739324251239     IErMin=12 ErrMin= 9.45D-07
 ErrMax= 9.45D-07 EMaxC= 1.00D-01 BMatC= 2.43D-10 BMatP= 6.83D-09
 IDIUse=1 WtCom= 1.00D+00 WtEn= 0.00D+00
 Coeff-Com: -0.222D-04 0.476D-04-0.804D-04 0.429D-05 0.888D-04-0.909D-03
 Coeff-Com: -0.481D-02-0.736D-02-0.448D-02 0.119D-01 0.160D+00 0.845D+00
 Coeff:     -0.222D-04 0.476D-04-0.804D-04 0.429D-05 0.888D-04-0.909D-03
 Coeff:     -0.481D-02-0.736D-02-0.448D-02 0.119D-01 0.160D+00 0.845D+00
 Gap=     0.141 Goal=   None    Shift=    0.000
 RMSDP=2.81D-07 MaxDP=2.10D-05 DE=-5.63D-09 OVMax= 3.30D-06

 Cycle  13  Pass 1  IDiag  1:
 RMSU=  5.64D-08    CP:  1.22D+00  3.46D-01  8.32D-01  2.54D-01  7.82D-01
                    CP:  9.43D-01  7.87D-01  9.37D-01  9.73D-01  1.19D+00
                    CP:  1.24D+00  1.00D+00
 E= -323.739324251443     Delta-E=       -0.000000000205 Rises=F Damp=F
 DIIS: error= 1.80D-07 at cycle  13 NSaved=  13.
 NSaved=13 IEnMin=13 EnMin= -323.739324251443     IErMin=13 ErrMin= 1.80D-07
 ErrMax= 1.80D-07 EMaxC= 1.00D-01 BMatC= 1.65D-11 BMatP= 2.43D-10
 IDIUse=1 WtCom= 1.00D+00 WtEn= 0.00D+00
 Coeff-Com: -0.627D-05 0.113D-04-0.124D-04-0.242D-06 0.306D-04-0.198D-03
 Coeff-Com: -0.112D-02-0.161D-02-0.300D-02-0.101D-01 0.130D-01 0.435D+00
 Coeff-Com:  0.568D+00
 Coeff:     -0.627D-05 0.113D-04-0.124D-04-0.242D-06 0.306D-04-0.198D-03
 Coeff:     -0.112D-02-0.161D-02-0.300D-02-0.101D-01 0.130D-01 0.435D+00
 Coeff:      0.568D+00
 Gap=     0.141 Goal=   None    Shift=    0.000
 RMSDP=1.16D-07 MaxDP=1.17D-05 DE=-2.05D-10 OVMax= 1.33D-06

 Cycle  14  Pass 1  IDiag  1:
 RMSU=  1.52D-08    CP:  1.22D+00  3.46D-01  8.32D-01  2.54D-01  7.82D-01
                    CP:  9.43D-01  7.87D-01  9.36D-01  9.75D-01  1.19D+00
                    CP:  1.25D+00  1.07D+00  8.35D-01
 E= -323.739324251453     Delta-E=       -0.000000000010 Rises=F Damp=F
 DIIS: error= 7.47D-08 at cycle  14 NSaved=  14.
 NSaved=14 IEnMin=14 EnMin= -323.739324251453     IErMin=14 ErrMin= 7.47D-08
 ErrMax= 7.47D-08 EMaxC= 1.00D-01 BMatC= 9.78D-13 BMatP= 1.65D-11
 IDIUse=1 WtCom= 1.00D+00 WtEn= 0.00D+00
 Coeff-Com:  0.692D-07-0.344D-06 0.271D-05-0.109D-06 0.239D-05-0.149D-04
 Coeff-Com: -0.565D-05 0.696D-04-0.471D-03-0.419D-02-0.169D-01 0.586D-01
 Coeff-Com:  0.160D+00 0.803D+00
 Coeff:      0.692D-07-0.344D-06 0.271D-05-0.109D-06 0.239D-05-0.149D-04
 Coeff:     -0.565D-05 0.696D-04-0.471D-03-0.419D-02-0.169D-01 0.586D-01
 Coeff:      0.160D+00 0.803D+00
 Gap=     0.141 Goal=   None    Shift=    0.000
 RMSDP=2.15D-08 MaxDP=1.07D-06 DE=-9.66D-12 OVMax= 3.54D-07

 Cycle  15  Pass 1  IDiag  1:
 RMSU=  4.61D-09    CP:  1.22D+00  3.46D-01  8.32D-01  2.54D-01  7.82D-01
                    CP:  9.43D-01  7.87D-01  9.36D-01  9.75D-01  1.19D+00
                    CP:  1.26D+00  1.09D+00  9.04D-01  1.09D+00
 E= -323.739324251461     Delta-E=       -0.000000000008 Rises=F Damp=F
 DIIS: error= 5.18D-09 at cycle  15 NSaved=  15.
 NSaved=15 IEnMin=15 EnMin= -323.739324251461     IErMin=15 ErrMin= 5.18D-09
 ErrMax= 5.18D-09 EMaxC= 1.00D-01 BMatC= 1.12D-14 BMatP= 9.78D-13
 IDIUse=1 WtCom= 1.00D+00 WtEn= 0.00D+00
 Coeff-Com:  0.358D-06-0.601D-06 0.889D-06 0.971D-08-0.951D-06 0.417D-05
 Coeff-Com:  0.496D-04 0.104D-03 0.172D-03-0.138D-03-0.468D-02-0.556D-02
 Coeff-Com:  0.100D-01 0.126D+00 0.874D+00
 Coeff:      0.358D-06-0.601D-06 0.889D-06 0.971D-08-0.951D-06 0.417D-05
 Coeff:      0.496D-04 0.104D-03 0.172D-03-0.138D-03-0.468D-02-0.556D-02
 Coeff:      0.100D-01 0.126D+00 0.874D+00
 Gap=     0.141 Goal=   None    Shift=    0.000
 RMSDP=9.20D-09 MaxDP=7.67D-07 DE=-7.50D-12 OVMax= 7.50D-08

 Error on total polarization charges =  0.01328
 SCF Done:  E(RB3LYP) =  -323.739324251     A.U. after   15 cycles
             Convg  =    0.9199D-08             -V/T =  2.0045
 KE= 3.222847263833D+02 PE=-1.248892374009D+03 EE= 3.577539959800D+02
 Leave Link  502 at Sat Apr 16 14:41:59 2016, MaxMem=   33554432 cpu:     255.0
 (Enter c:\G09w04\l801.exe)
 Range of M.O.s used for correlation:     1   181
 NBasis=   181 NAE=    24 NBE=    24 NFC=     0 NFV=     0
 NROrb=    181 NOA=    24 NOB=    24 NVA=   157 NVB=   157

 **** Warning!!: The largest alpha MO coefficient is  0.81077032D+02

 Leave Link  801 at Sat Apr 16 14:41:59 2016, MaxMem=   33554432 cpu:       0.0
 (Enter c:\G09w04\l1101.exe)
 Using compressed storage, NAtomX=    13.
 Will process  14 centers per pass.
 Leave Link 1101 at Sat Apr 16 14:42:00 2016, MaxMem=   33554432 cpu:       1.0
 (Enter c:\G09w04\l1102.exe)
 Symmetrizing basis deriv contribution to polar:
 IMax=3 JMax=2 DiffMx= 0.00D+00
 Leave Link 1102 at Sat Apr 16 14:42:00 2016, MaxMem=   33554432 cpu:       0.0
 (Enter c:\G09w04\l1110.exe)
 Forming Gx(P) for the SCF density, NAtomX=    13.
 Integral derivatives from FoFDir/FoFCou, PRISM(SPDF).
 Do as many integral derivatives as possible in FoFDir.
 G2DrvN: MDV=      33554300.
 G2DrvN: will do    14 centers at a time, making    1 passes doing MaxLOS=2.
 Calling FoFCou, ICntrl=  3107 FMM=F I1Cent=   0 AccDes= 0.00D+00.
 FoFCou: FMM=F IPFlag=           0 FMFlag=      100000 FMFlg1=           0
         NFxFlg=           0 DoJE=F BraDBF=F KetDBF=F FulRan=T
         Omega=  0.000000  0.000000  1.000000  0.000000  0.000000 ICntrl=    3107 IOpCl=  0
         NMat0=    1 NMatS0=    1 NMatT0=    0 NMatD0=    1 NMtDS0=    0 NMtDT0=    0
         I1Cent=           0 NGrid=           0.
 Symmetry not used in FoFCou.
 FoFDir/FoFCou used for L=0 through L=2.
 G2PCM: DoFxE=T DoFxN=T DoGrad=T DoPD/DQ/DG=FFF NFrqRd=   0 IEInf=0 DoCFld=F IF1Alg=4.
 GePol: Maximum number of non-zero 1st derivatives   =     209
 End of G2Drv Frequency-dependent properties file   721 does not exist.
 End of G2Drv Frequency-dependent properties file   722 does not exist.
 Leave Link 1110 at Sat Apr 16 14:47:04 2016, MaxMem=   33554432 cpu:     304.0
 (Enter c:\G09w04\l1002.exe)
 Minotr:  Closed shell wavefunction.
          IDoAtm=1111111111111
 NEqPCM:  Using equilibrium solvation (IEInf=0, Eps=  78.3553, EpsInf=   1.7778)
          Direct CPHF calculation.
          Differentiating once with respect to nuclear coordinates.
          Requested convergence is 1.0D-06 RMS, and 1.0D-05 maximum.
          Secondary convergence is 1.0D-12 RMS, and 1.0D-12 maximum.
          NewPWx=T KeepS1=F KeepF1=F KeepIn=T MapXYZ=F SortEE=F KeepMc=T.
          MDV=      33554336 using IRadAn=       2.
 Generate precomputed XC quadrature information.
          Solving linear equations simultaneously, MaxMat=       0.
 Symmetry not used in FoFDir.
 MinBra= 0 MaxBra= 2 Meth= 1.
 IRaf=       0 NMat=  42 IRICut=     105 DoRegI=T DoRafI=T ISym2E= 0 JSym2E=0.
          There are    42 degrees of freedom in the 1st order CPHF.  IDoFFX=5.
     36 vectors produced by pass  0 Test12= 8.97D-11 2.38D-07 XBig12= 3.32D-01 2.96D-01.
 AX will form    36 AO Fock derivatives at one time.
     36 vectors produced by pass  1 Test12= 8.97D-11 2.38D-07 XBig12= 4.77D-02 7.07D-02.
     36 vectors produced by pass  2 Test12= 8.97D-11 2.38D-07 XBig12= 4.38D-04 3.35D-03.
     36 vectors produced by pass  3 Test12= 8.97D-11 2.38D-07 XBig12= 1.69D-06 1.87D-04.
     22 vectors produced by pass  4 Test12= 8.97D-11 2.38D-07 XBig12= 3.60D-09 7.99D-06.
      1 vectors produced by pass  5 Test12= 8.97D-11 2.38D-07 XBig12= 7.16D-12 4.12D-07.
 Inverted reduced A of dimension   167 with in-core refinement.
 End of Minotr Frequency-dependent properties file   721 does not exist.
 End of Minotr Frequency-dependent properties file   722 does not exist.
 Leave Link 1002 at Sat Apr 16 14:53:32 2016, MaxMem=   33554432 cpu:     388.0
 (Enter c:\G09w04\l601.exe)
 Copying SCF densities to generalized density rwf, IOpCl= 0 IROHF=0.

 **********************************************************************

            Population analysis using the SCF density.

 **********************************************************************

 Alpha  occ. eigenvalues --  -19.15157 -19.10438 -14.35159 -10.27277 -10.25247
 Alpha  occ. eigenvalues --  -10.18552  -1.05941  -0.97073  -0.93541  -0.77547
 Alpha  occ. eigenvalues --   -0.69438  -0.59388  -0.55598  -0.52515  -0.49267
 Alpha  occ. eigenvalues --   -0.45461  -0.43323  -0.42791  -0.40542  -0.37908
 Alpha  occ. eigenvalues --   -0.34155  -0.32376  -0.28109  -0.19983
 Alpha virt. eigenvalues --   -0.05853  -0.00597   0.00849   0.01557   0.03038
 Alpha virt. eigenvalues --    0.03786   0.04399   0.05544   0.06607   0.07960
 Alpha virt. eigenvalues --    0.08620   0.10323   0.10400   0.10805   0.11814
 Alpha virt. eigenvalues --    0.12194   0.12843   0.14171   0.15176   0.15615
 Alpha virt. eigenvalues --    0.16614   0.17103   0.17708   0.18347   0.18789
 Alpha virt. eigenvalues --    0.18980   0.20183   0.20901   0.21612   0.23173
 Alpha virt. eigenvalues --    0.25034   0.25642   0.26306   0.28198   0.29258
 Alpha virt. eigenvalues --    0.30463   0.30783   0.31530   0.32421   0.34869
 Alpha virt. eigenvalues --    0.37490   0.38973   0.40267   0.43242   0.46040
 Alpha virt. eigenvalues --    0.47103   0.51591   0.53427   0.56929   0.57270
 Alpha virt. eigenvalues --    0.58772   0.60342   0.62107   0.65781   0.66644
 Alpha virt. eigenvalues --    0.68213   0.70671   0.72261   0.73396   0.76150
 Alpha virt. eigenvalues --    0.80723   0.82557   0.83311   0.91446   0.92289
 Alpha virt. eigenvalues --    0.98527   1.05313   1.07069   1.08842   1.11189
 Alpha virt. eigenvalues --    1.13438   1.14331   1.17732   1.19586   1.20696
 Alpha virt. eigenvalues --    1.26875   1.31281   1.36852   1.39710   1.42853
 Alpha virt. eigenvalues --    1.45241   1.46931   1.47633   1.52505   1.56070
 Alpha virt. eigenvalues --    1.57580   1.59493   1.60922   1.63502   1.65380
 Alpha virt. eigenvalues --    1.70657   1.71159   1.77294   1.79015   1.80929
 Alpha virt. eigenvalues --    1.84461   1.87433   1.93569   1.99533   2.02541
 Alpha virt. eigenvalues --    2.04725   2.09070   2.10974   2.15521   2.26015
 Alpha virt. eigenvalues --    2.27745   2.33908   2.39132   2.41505   2.45960
 Alpha virt. eigenvalues --    2.47844   2.52377   2.53185   2.57811   2.62181
 Alpha virt. eigenvalues --    2.63856   2.66086   2.68569   2.79287   2.85562
 Alpha virt. eigenvalues --    2.88520   2.89952   2.92299   2.93045   2.94721
 Alpha virt. eigenvalues --    3.02830   3.06311   3.07544   3.13078   3.16068
 Alpha virt. eigenvalues --    3.19705   3.35457   3.37912   3.43379   3.49739
 Alpha virt. eigenvalues --    3.62356   3.76840   3.79543   3.85822   3.86252
 Alpha virt. eigenvalues --    3.93562   4.13188   4.27200   4.76697   4.91766
 Alpha virt. eigenvalues --    5.00707   5.07891   5.12534   5.34361   5.52754
 Alpha virt. eigenvalues --    5.73975  23.61413  23.91997  23.99006  35.61720
 Alpha virt. eigenvalues --   49.87983  49.93932
          Condensed to atoms (all electrons):
              1          2          3          4          5          6
     1  N    6.592539   0.365014   0.164481   0.000191  -0.152250  -0.040066
     2  H    0.365014   0.351752  -0.028853  -0.000238   0.037596  -0.031866
     3  C    0.164481  -0.028853   8.922275  -0.049748   0.351646  -3.413921
     4  H    0.000191  -0.000238  -0.049748   0.432861  -0.011209   0.066202
     5  C   -0.152250   0.037596   0.351646  -0.011209   6.332953  -1.185772
     6  C   -0.040066  -0.031866  -3.413921   0.066202  -1.185772  11.083095
     7  H    0.020869  -0.001168  -0.038208  -0.002813   0.412366  -0.044620
     8  H    0.003544  -0.002266  -0.055363   0.002070   0.290149   0.111074
     9  H   -0.010629   0.003407  -0.014930  -0.000637   0.479425  -0.095855
    10  O    0.016522   0.003559  -0.004164  -0.010512   0.069833  -0.219165
    11  H    0.372491  -0.011936  -0.087032   0.001141  -0.007891   0.063682
    12  O    0.020008   0.000299  -0.413303   0.274581   0.024980   0.248090
    13  H    0.004386   0.000842  -0.068601  -0.005887   0.001264   0.213443
              7          8          9         10         11         12
     1  N    0.020869   0.003544  -0.010629   0.016522   0.372491   0.020008
     2  H   -0.001168  -0.002266   0.003407   0.003559  -0.011936   0.000299
     3  C   -0.038208  -0.055363  -0.014930  -0.004164  -0.087032  -0.413303
     4  H   -0.002813   0.002070  -0.000637  -0.010512   0.001141   0.274581
     5  C    0.412366   0.290149   0.479425   0.069833  -0.007891   0.024980
     6  C   -0.044620   0.111074  -0.095855  -0.219165   0.063682   0.248090
     7  H    0.508169  -0.013305  -0.024956   0.000525   0.000218  -0.002272
     8  H   -0.013305   0.534454  -0.047812  -0.001905   0.001661  -0.002391
     9  H   -0.024956  -0.047812   0.528817   0.001845  -0.000345   0.003756
    10  O    0.000525  -0.001905   0.001845   8.637994   0.014840  -0.064809
    11  H    0.000218   0.001661  -0.000345   0.014840   0.352580   0.003019
    12  O   -0.002272  -0.002391   0.003756  -0.064809   0.003019   8.187635
    13  H    0.000001  -0.005488   0.004543   0.077202  -0.005240  -0.006882
             13
     1  N    0.004386
     2  H    0.000842
     3  C   -0.068601
     4  H   -0.005887
     5  C    0.001264
     6  C    0.213443
     7  H    0.000001
     8  H   -0.005488
     9  H    0.004543
    10  O    0.077202
    11  H   -0.005240
    12  O   -0.006882
    13  H    0.441963
 Mulliken atomic charges:
              1
     1  N   -0.357100
     2  H    0.313857
     3  C    0.735719
     4  H    0.303998
     5  C   -0.643089
     6  C   -0.754320
     7  H    0.185196
     8  H    0.185577
     9  H    0.173370
    10  O   -0.521765
    11  H    0.302813
    12  O   -0.272710
    13  H    0.348455
 Sum of Mulliken atomic charges =   0.00000
 Mulliken charges with hydrogens summed into heavy atoms:
              1
     1  N    0.259570
     3  C    0.735719
     5  C   -0.098947
     6  C   -0.405865
    10  O   -0.521765
    12  O    0.031288
 Sum of Mulliken charges with hydrogens summed into heavy atoms =   0.00000
 APT atomic charges:
              1
     1  N   -0.933110
     2  H    0.747997
     3  C    0.514514
     4  H    0.714279
     5  C   -1.229718
     6  C   -0.642401
     7  H    0.337578
     8  H    0.454716
     9  H    0.484680
    10  O   -0.659055
    11  H    0.479590
    12  O   -0.685218
    13  H    0.416148
 Sum of APT charges=   0.00000
 APT Atomic charges with hydrogens summed into heavy atoms:
              1
     1  N    0.294477
     2  H    0.000000
     3  C    0.514514
     4  H    0.000000
     5  C    0.047256
     6  C   -0.226254
     7  H    0.000000
     8  H    0.000000
     9  H    0.000000
    10  O   -0.659055
    11  H    0.000000
    12  O    0.029062
    13  H    0.000000
 Sum of APT charges=   0.00000
 Electronic spatial extent (au):  <R**2>=            608.8238
 Charge=              0.0000 electrons
 Dipole moment (field-independent basis, Debye):
    X=              5.1448    Y=              0.2950    Z=             -1.1522  Tot=              5.2805
 Quadrupole moment (field-independent basis, Debye-Ang):
   XX=            -31.9042   YY=            -37.6755   ZZ=            -38.0046
   XY=             -7.3278   XZ=              1.5198   YZ=              0.1127
 Traceless Quadrupole moment (field-independent basis, Debye-Ang):
   XX=              3.9572   YY=             -1.8140   ZZ=             -2.1432
   XY=             -7.3278   XZ=              1.5198   YZ=              0.1127
 Octapole moment (field-independent basis, Debye-Ang**2):
  XXX=             10.7648  YYY=             -9.8584  ZZZ=             -0.9117  XYY=             12.4940
  XXY=             10.7899  XXZ=             -2.2764  XZZ=             -1.3217  YZZ=              0.2544
  YYZ=              0.3560  XYZ=             -0.5991
 Hexadecapole moment (field-independent basis, Debye-Ang**3):
 XXXX=           -371.4679 YYYY=           -281.9586 ZZZZ=            -55.0173 XXXY=            -62.4499
 XXXZ=             -1.2780 YYYX=            -25.5593 YYYZ=             -4.3100 ZZZX=              2.8762
 ZZZY=              2.8639 XXYY=           -110.5186 XXZZ=            -78.8884 YYZZ=            -62.7391
 XXYZ=              2.5153 YYXZ=              1.3344 ZZXY=              1.2219
 N-N= 2.451143273938D+02 E-N=-1.248892374405D+03  KE= 3.222847263833D+02
  Exact polarizability:   0.000   0.000   0.000   0.000   0.000   0.000
 Approx polarizability: 143.965   8.040  87.356   8.420  -1.408  62.991
 No NMR shielding tensors so no spin-rotation constants.
 Leave Link  601 at Sat Apr 16 14:53:32 2016, MaxMem=   33554432 cpu:       0.0
 (Enter c:\G09w04\l701.exe)
 Compute integral second derivatives.
 ... and contract with generalized density number  0.
 D2PCM: C-PCM CHGder 2nd derivatives, FixD1E=F FixD2E=F DoIter=F DoCFld=F I1PDM=0
 GePol: Maximum number of non-zero 2nd derivatives   =     209
 Leave Link  701 at Sat Apr 16 14:54:00 2016, MaxMem=   33554432 cpu:      28.0
 (Enter c:\G09w04\l702.exe)
 L702 exits ... SP integral derivatives will be done elsewhere.
 Leave Link  702 at Sat Apr 16 14:54:00 2016, MaxMem=   33554432 cpu:       0.0
 (Enter c:\G09w04\l703.exe)
 Compute integral second derivatives, UseDBF=F ICtDFT=           0.
 Integral derivatives from FoFDir, PRISM(SPDF).
 Calling FoFJK, ICntrl=    100147 FMM=F ISym2X=0 I1Cent= 0 IOpClX= 0 NMat=1 NMatS=1 NMatT=0.
 FoFCou: FMM=F IPFlag=           0 FMFlag=      100000 FMFlg1=         800
         NFxFlg=           0 DoJE=F BraDBF=F KetDBF=F FulRan=T
         Omega=  0.000000  0.000000  1.000000  0.000000  0.000000 ICntrl=  100147 IOpCl=  0
         NMat0=    1 NMatS0=    1 NMatT0=    0 NMatD0=    1 NMtDS0=    0 NMtDT0=    0
         I1Cent=           0 NGrid=           0.
 Symmetry not used in FoFCou.
 Leave Link  703 at Sat Apr 16 15:01:50 2016, MaxMem=   33554432 cpu:     470.0
 (Enter c:\G09w04\l716.exe)
 Dipole        = 2.02410354D+00 1.16077568D-01-4.53316252D-01
 Polarizability= 0.00000000D+00 0.00000000D+00 0.00000000D+00
                 0.00000000D+00 0.00000000D+00 0.00000000D+00
 -------------------------------------------------------------------
 Center     Atomic                   Forces (Hartrees/Bohr)
 Number     Number              X              Y              Z
 -------------------------------------------------------------------
      1        7          -0.008218992    0.016187425    0.001777990
      2        1           0.001108766    0.000207617    0.000171418
      3        6           0.008824460   -0.016267454   -0.001371646
      4        1           0.012235483   -0.001091433   -0.001715553
      5        6           0.000840656    0.001525106   -0.001377007
      6        6          -0.026739182   -0.009707275   -0.003946700
      7        1           0.001174438   -0.001264212   -0.000214961
      8        1          -0.001451490   -0.001448332   -0.001564806
      9        1          -0.002559817   -0.000686654    0.002271460
     10        8           0.011788530    0.020093522    0.002721158
     11        1           0.002382988   -0.000596271   -0.001600483
     12        8          -0.006173701   -0.012757530    0.001855813
     13        1           0.006787861    0.005805491    0.002993318
 -------------------------------------------------------------------
 Cartesian Forces:  Max     0.026739182 RMS     0.008063250
 Force constants in Cartesian coordinates: 
                1             2             3             4             5 
      1  0.880205D+00
      2  0.431569D-02  0.707636D+00
      3 -0.712096D-01 -0.818363D-01  0.419666D-01
      4 -0.447962D+00  0.792250D-01  0.381669D-01  0.458068D+00
      5  0.791140D-01 -0.873704D-01  0.395985D-02 -0.909618D-01  0.807863D-01
      6  0.409900D-01  0.128882D-02 -0.119201D-02 -0.380443D-01 -0.526676D-03
      7 -0.161423D+00  0.484076D-01  0.461908D-02 -0.536255D-02  0.345890D-01
      8  0.678140D-01 -0.310436D+00  0.235641D-01  0.328285D-02 -0.260695D-02
      9 -0.783327D-03  0.139117D-01 -0.431329D-01 -0.186851D-02 -0.327286D-02
     10  0.948265D-03 -0.248282D-02  0.594210D-03 -0.469965D-04  0.219088D-04
     11  0.124890D-02  0.125108D-02 -0.275622D-03  0.122007D-03 -0.441156D-03
     12  0.664198D-04 -0.126739D-03  0.113881D-02 -0.306830D-05  0.135205D-03
     13  0.146573D-01  0.602021D-02 -0.215240D-03  0.587492D-03 -0.371167D-04
     14 -0.238075D-01 -0.354545D-01  0.268972D-02 -0.712872D-03  0.155738D-02
     15  0.207721D-02  0.310321D-02  0.344039D-02 -0.519710D-03 -0.564200D-03
     16 -0.330713D-01  0.480913D-01 -0.101307D-01  0.305236D-02 -0.183688D-02
     17  0.366252D-01  0.380243D-02  0.314968D-02  0.116912D-02 -0.528086D-02
     18 -0.312048D-01  0.665943D-01  0.251945D-03  0.674492D-02  0.507222D-03
     19 -0.372481D-02 -0.380127D-02  0.224938D-03 -0.236598D-03 -0.703158D-04
     20 -0.490013D-02 -0.267216D-02  0.473973D-03 -0.245640D-03  0.395913D-03
     21  0.183246D-04  0.231385D-03  0.131432D-02  0.216677D-04  0.979967D-04
     22  0.587881D-03  0.225615D-02  0.396231D-03  0.201893D-03 -0.747624D-04
     23 -0.297059D-03  0.931526D-03  0.821373D-03 -0.133660D-04 -0.318948D-03
     24  0.287308D-04  0.744710D-03  0.570945D-03 -0.352482D-04 -0.181676D-03
     25  0.131187D-02  0.225718D-02 -0.103153D-02  0.326944D-03 -0.240586D-03
     26  0.194477D-03  0.153864D-02 -0.855103D-03  0.549531D-03 -0.488174D-03
     27 -0.604578D-04  0.217872D-04  0.762361D-03  0.186121D-03  0.479979D-03
     28 -0.674992D-02  0.113838D-01 -0.118677D-02  0.581466D-03 -0.141089D-02
     29 -0.458790D-02  0.255717D-01 -0.479735D-02  0.330649D-02  0.232847D-02
     30  0.178052D-01 -0.402511D-01  0.628835D-03 -0.400768D-02 -0.158468D-02
     31 -0.242491D+00 -0.177843D+00  0.399520D-01 -0.790030D-02 -0.202863D-01
     32 -0.178920D+00 -0.261196D+00  0.444563D-01  0.872275D-02  0.124749D-01
     33  0.409168D-01  0.443476D-01 -0.122943D-01 -0.181359D-03  0.142381D-03
     34 -0.921095D-02  0.190218D-02 -0.119329D-02  0.315349D-03  0.182405D-02
     35  0.611605D-02 -0.108831D-01  0.208303D-02 -0.116645D-02 -0.280274D-03
     36  0.489648D-02 -0.135883D-01  0.458832D-02 -0.121329D-02  0.347092D-03
     37  0.692260D-02 -0.197319D-01  0.101370D-02 -0.162466D-02 -0.630313D-03
     38  0.170841D-01 -0.327194D-01  0.656636D-02 -0.327766D-02 -0.756250D-03
     39 -0.354105D-02  0.555894D-02  0.195669D-02  0.753482D-03  0.460361D-03
                6             7             8             9            10 
      6  0.902722D-02
      7 -0.334586D-02  0.690674D+00
      8  0.321414D-03 -0.103685D-01  0.642095D+00
      9 -0.623634D-02 -0.395023D-02 -0.203034D-01  0.171569D+00
     10 -0.230322D-03 -0.180668D-02  0.277544D-02 -0.607862D-03  0.478279D+00
     11  0.204405D-03  0.207951D-02 -0.784047D-02 -0.443892D-03  0.285889D-01
     12  0.559470D-03 -0.100607D-02  0.373093D-03 -0.117126D-02  0.174528D-01
     13 -0.574356D-03 -0.143982D+00 -0.608384D-01  0.124808D-02  0.269283D-03
     14 -0.181149D-03 -0.581692D-01 -0.161557D+00  0.574239D-02 -0.154670D-03
     15 -0.204028D-02  0.126214D-01  0.560711D-02 -0.700800D-01  0.526044D-04
     16 -0.405943D-03 -0.314392D+00  0.846168D-02 -0.501054D-02 -0.168530D-01
     17  0.227519D-02  0.563179D-01 -0.102030D+00  0.125225D-01  0.730273D-03
     18  0.788057D-02  0.655321D-01 -0.469923D-01 -0.400022D-01  0.199290D-02
     19  0.131719D-03  0.141116D-01 -0.197198D-01  0.509016D-02 -0.134140D-04
     20  0.158040D-03  0.148615D-01 -0.218778D-01  0.499550D-02  0.981204D-04
     21 -0.409170D-03 -0.659413D-03 -0.104469D-02 -0.279340D-02 -0.433236D-04
     22 -0.342972D-03 -0.134733D-01 -0.403395D-02 -0.179970D-01  0.805202D-04
     23 -0.539864D-03 -0.112977D-01 -0.422575D-02 -0.233065D-01  0.985624D-04
     24 -0.111389D-03 -0.577917D-03 -0.147177D-02  0.341246D-02  0.655471D-04
     25  0.530734D-03 -0.206205D-01 -0.798191D-04  0.123394D-01  0.152381D-03
     26  0.336311D-03 -0.212543D-01  0.337789D-02  0.196255D-01  0.135554D-03
     27 -0.155713D-03 -0.253778D-02  0.639391D-03  0.109875D-02 -0.734568D-04
     28 -0.109916D-02 -0.772646D-02 -0.453326D-01  0.162861D-01  0.165675D-02
     29  0.201648D-02  0.196520D-01 -0.317916D-01  0.649837D-02 -0.271607D-02
     30 -0.223915D-02 -0.712433D-01  0.274931D-01 -0.316700D-02 -0.160724D-02
     31  0.306970D-02  0.216642D-01  0.199346D-02  0.388230D-03  0.182093D-03
     32 -0.229323D-02 -0.205316D-01 -0.265046D-01  0.427228D-02  0.156799D-03
     33 -0.592582D-02 -0.136219D-02  0.286023D-02 -0.696120D-03  0.952154D-04
     34 -0.110716D-02 -0.157688D-01  0.407397D-01  0.139831D-01 -0.462664D+00
     35 -0.110215D-02  0.241297D-03  0.312306D-03 -0.108186D-01 -0.261584D-01
     36  0.941441D-04 -0.169144D-01  0.104726D-01 -0.256583D-02 -0.174675D-01
     37  0.427894D-03 -0.418942D-01  0.153060D-01 -0.191175D-01 -0.183718D-03
     38 -0.195758D-02 -0.545275D-01  0.230843D-01 -0.942310D-02 -0.109367D-02
     39  0.748458D-03  0.188245D-01 -0.151896D-02 -0.623550D-02 -0.223518D-03
               11            12            13            14            15 
     11  0.528739D-01
     12  0.135829D-01  0.104283D-01
     13 -0.595693D-03  0.329191D-03  0.525092D+00
     14 -0.407226D-03  0.125561D-04 -0.503517D-01  0.534044D+00
     15  0.132743D-03 -0.394434D-03  0.623602D-03 -0.954138D-02  0.519019D+00
     16  0.448127D-01  0.990627D-02 -0.157704D-01 -0.870278D-02 -0.132330D-01
     17 -0.513922D-02  0.242152D-02 -0.216693D-01  0.678033D-02 -0.487559D-02
     18 -0.220128D-02 -0.234426D-02  0.198215D-04  0.410425D-03  0.338909D-02
     19  0.175107D-03 -0.104709D-03 -0.115424D+00  0.118056D+00 -0.255159D-01
     20  0.499059D-03 -0.104563D-03  0.110189D+00 -0.242305D+00  0.424310D-01
     21 -0.132829D-03 -0.845062D-04 -0.236434D-01  0.431313D-01 -0.551441D-01
     22 -0.959795D-04 -0.110189D-04 -0.955048D-01 -0.943910D-02 -0.105021D+00
     23  0.184801D-04  0.511090D-04 -0.103449D-01 -0.476579D-01 -0.187680D-01
     24 -0.429320D-04 -0.554115D-04 -0.103320D+00 -0.173982D-01 -0.241180D+00
     25 -0.176709D-03  0.148852D-03 -0.165161D+00  0.254048D-01  0.124745D+00
     26  0.175706D-03 -0.956387D-04  0.242461D-01 -0.534681D-01 -0.233397D-01
     27 -0.242177D-04  0.520313D-04  0.125507D+00 -0.237120D-01 -0.168359D+00
     28 -0.382627D-02 -0.109773D-02 -0.318688D-02  0.463238D-02 -0.101829D-02
     29  0.418345D-02 -0.843043D-03 -0.853609D-04  0.310044D-02  0.232098D-02
     30  0.431801D-02 -0.681546D-03 -0.742049D-03  0.178645D-03  0.748907D-02
     31  0.163450D-03  0.188727D-05 -0.832664D-03  0.310851D-02  0.444901D-03
     32 -0.345770D-04 -0.144996D-04  0.439864D-02 -0.252547D-02  0.158203D-02
     33 -0.478486D-04 -0.239935D-03  0.529730D-03 -0.532808D-03  0.413063D-02
     34 -0.752721D-01 -0.262641D-01 -0.266675D-03  0.632871D-03  0.108385D-02
     35 -0.474769D-01 -0.146530D-01 -0.101500D-02 -0.174025D-02  0.684497D-03
     36 -0.129900D-01 -0.783320D-02 -0.232610D-04 -0.697281D-03 -0.791463D-03
     37  0.277613D-02  0.581276D-03 -0.478167D-03 -0.496986D-03  0.365943D-02
     38  0.233792D-02 -0.738957D-03  0.831505D-04 -0.366233D-03  0.122730D-02
     39 -0.207942D-02  0.625953D-03  0.260928D-03 -0.102172D-03  0.521098D-03
               16            17            18            19            20 
     16  0.578850D+00
     17 -0.116449D+00  0.366805D+00
     18 -0.488972D-01  0.218321D-01  0.161882D+00
     19 -0.506657D-03 -0.938583D-03 -0.100867D-02  0.123550D+00
     20  0.390538D-03 -0.136396D-02 -0.150820D-02 -0.121317D+00  0.264332D+00
     21  0.214095D-03  0.488911D-03  0.353401D-03  0.272584D-01 -0.467520D-01
     22 -0.937379D-03 -0.302025D-02 -0.899037D-03 -0.708742D-02 -0.212265D-02
     23 -0.124008D-02 -0.284613D-02 -0.163187D-02  0.112059D-01  0.401765D-02
     24  0.138580D-02 -0.324737D-03 -0.851570D-03 -0.141157D-02 -0.662948D-04
     25  0.311588D-02 -0.212771D-02  0.364382D-03 -0.994261D-02  0.100044D-02
     26  0.210484D-02 -0.321858D-02 -0.118163D-02  0.170108D-01 -0.188120D-02
     27 -0.790993D-04  0.333821D-03  0.921501D-03 -0.542436D-02 -0.172285D-03
     28 -0.123005D+00 -0.453876D-01 -0.108523D-01  0.209053D-03 -0.171661D-03
     29 -0.753569D-01 -0.115991D+00 -0.351624D-01  0.000000D+00 -0.823390D-04
     30  0.129446D+00  0.878007D-01  0.497629D-01  0.485965D-03  0.612698D-03
     31 -0.561808D-02  0.219263D-02 -0.106711D-01  0.522169D-03  0.731108D-03
     32 -0.207558D-02 -0.311664D-02 -0.198494D-02 -0.106045D-02 -0.817974D-03
     33  0.143158D-02 -0.140923D-03 -0.391067D-02 -0.196401D-03 -0.344069D-03
     34 -0.118879D+00  0.624086D-01  0.230173D-01 -0.165583D-02  0.123698D-02
     35  0.334581D-01 -0.162114D+00 -0.237011D-01  0.489196D-04  0.116644D-02
     36  0.261605D-01 -0.369992D-01 -0.408487D-01  0.503747D-03  0.334274D-03
     37  0.440153D-01  0.301485D-01  0.586169D-02  0.197933D-03  0.249255D-03
     38  0.683419D-01  0.237121D-01  0.250197D-01  0.411444D-03  0.589475D-03
     39 -0.907880D-01 -0.884839D-01 -0.136484D+00 -0.333358D-04 -0.580988D-04
               21            22            23            24            25 
     21  0.554224D-01
     22 -0.130849D-01  0.106069D+00
     23  0.244834D-01  0.143121D-01  0.493516D-01
     24 -0.426866D-02  0.114625D+00  0.202783D-01  0.262241D+00
     25  0.102245D-01  0.110811D-01 -0.189341D-02 -0.100402D-01  0.182555D+00
     26 -0.202427D-01  0.168233D-02 -0.748876D-03 -0.133319D-02 -0.233590D-01
     27  0.512707D-02  0.197340D-01 -0.436819D-02 -0.200123D-01 -0.136672D+00
     28  0.164746D-03 -0.166086D-02 -0.148860D-02 -0.268098D-03 -0.176140D-02
     29  0.671621D-04 -0.654845D-03 -0.388657D-03 -0.572266D-03 -0.164157D-02
     30 -0.289517D-03  0.163183D-02  0.179371D-02 -0.567056D-04 -0.301644D-03
     31 -0.324075D-05 -0.185506D-03  0.127408D-03 -0.920846D-04 -0.337327D-03
     32 -0.240008D-04  0.499609D-04  0.359759D-03 -0.180671D-03 -0.136161D-03
     33  0.776322D-03  0.471375D-03  0.885184D-03  0.310733D-04 -0.586536D-03
     34 -0.298271D-03 -0.289373D-03 -0.190079D-03 -0.397191D-03 -0.853873D-03
     35 -0.906435D-04  0.563310D-03  0.906260D-03  0.388721D-03  0.672296D-03
     36  0.242106D-04  0.213236D-03  0.154831D-03  0.162012D-03  0.250282D-03
     37 -0.169213D-03  0.111841D-02  0.102121D-02  0.378371D-04  0.133829D-03
     38 -0.213316D-03  0.577678D-03  0.600968D-03  0.160043D-03  0.320238D-03
     39 -0.283604D-04  0.284903D-03  0.146540D-03  0.118513D-03  0.282148D-04
               26            27            28            29            30 
     26  0.545894D-01
     27  0.270320D-01  0.181618D+00
     28 -0.204669D-02  0.328449D-03  0.125516D+00
     29 -0.166957D-02  0.555652D-03  0.698964D-01  0.134284D+00
     30 -0.979178D-04 -0.102497D-02 -0.113130D-01  0.133405D-02 -0.186926D-01
     31 -0.103189D-03  0.341614D-04  0.652197D-03 -0.850668D-02  0.861705D-02
     32  0.242317D-03  0.106107D-03 -0.259967D-02  0.113863D-02  0.202660D-03
     33 -0.551327D-03  0.116116D-03  0.744960D-03 -0.205815D-02 -0.510210D-03
     34  0.569425D-03 -0.337860D-03  0.167203D-01 -0.103581D-01 -0.193408D-01
     35  0.855594D-03 -0.300374D-03 -0.117825D-02 -0.409894D-01 -0.811649D-02
     36  0.603586D-03 -0.251727D-03 -0.844766D-02  0.475820D-02  0.230299D-02
     37  0.270064D-03 -0.605315D-03 -0.124472D-02  0.110533D-01 -0.494306D-01
     38  0.694883D-03 -0.591672D-03  0.175297D-01  0.203057D-01 -0.736834D-01
     39  0.997222D-04  0.107619D-03  0.177587D-01  0.258823D-01 -0.335221D-01
               31            32            33            34            35 
     31  0.231109D+00
     32  0.192085D+00  0.278685D+00
     33 -0.412956D-01 -0.469052D-01  0.193660D-01
     34 -0.130230D-03 -0.460540D-03  0.370329D-03  0.600875D+00
     35 -0.248179D-03  0.836915D-03  0.479964D-03 -0.159669D-01  0.276290D+00
     36  0.192511D-02  0.573890D-03  0.156918D-03  0.734799D-03  0.627066D-01
     37  0.336582D-02  0.371144D-03 -0.937917D-03 -0.819119D-02  0.463315D-02
     38  0.658635D-02  0.457578D-03  0.186498D-02 -0.706622D-02 -0.168837D-01
     39 -0.237097D-02  0.209323D-03 -0.100002D-02  0.974934D-02 -0.756057D-02
               36            37            38            39 
     36  0.438062D-01
     37  0.938197D-02 -0.213724D-02
     38 -0.156763D-01 -0.449696D-01 -0.210574D-01
     39  0.115616D-02  0.492968D-01  0.674459D-01  0.172035D+00
 Leave Link  716 at Sat Apr 16 15:01:50 2016, MaxMem=   33554432 cpu:       0.0
 (Enter c:\G09w04\l103.exe)

 GradGradGradGradGradGradGradGradGradGradGradGradGradGradGradGradGradGrad
 Berny optimization.
 Red2BG is reusing G-inverse.
 Internal  Forces:  Max     0.021557786 RMS     0.005294605
 Search for a saddle point.
 Step number   1 out of a maximum of   61
 All quantities printed in internal units (Hartrees-Bohrs-Radians)
 Swaping is turned off.
 Second derivative matrix not updated -- analytic derivatives used.
 ITU=  0
     Eigenvalues ---   -0.09069  -0.00036   0.00031   0.00161   0.01272
     Eigenvalues ---    0.01774   0.01999   0.02628   0.05436   0.05571
     Eigenvalues ---    0.06810   0.09864   0.12033   0.12063   0.12696
     Eigenvalues ---    0.13655   0.14105   0.14251   0.15195   0.19741
     Eigenvalues ---    0.20868   0.22606   0.24391   0.32008   0.32184
     Eigenvalues ---    0.32722   0.33599   0.34665   0.42081   0.46289
     Eigenvalues ---    0.48240   0.48284   0.51937
 Eigenvectors required to have negative eigenvalues:
                          R13       R12       A17       D18       D19
   1                    0.65056  -0.38809   0.36133  -0.22142   0.21921
                          D13       D16       D14       D11       R5
   1                   -0.20574  -0.20154   0.18155   0.17735   0.11764
 Eigenvalue     2 is  -3.64D-04 should be greater than     0.000000 Eigenvector:
                          D18       D19       D17       D9        D10
   1                    0.55784   0.54938   0.51379   0.14343   0.14260
                          D8        D6        D7        D5        D12
   1                    0.13815   0.12850   0.12767   0.12322   0.06497
 RFO step:  Lambda0=8.243274766D-04 Lambda=-6.62283602D-03.
 Linear search not attempted -- option 19 set.
 Iteration  1 RMS(Cart)=  0.07750477 RMS(Int)=  0.08532322
 Iteration  2 RMS(Cart)=  0.04294873 RMS(Int)=  0.03670971
 Iteration  3 RMS(Cart)=  0.03196682 RMS(Int)=  0.00260943
 Iteration  4 RMS(Cart)=  0.00233878 RMS(Int)=  0.00077954
 Iteration  5 RMS(Cart)=  0.00000764 RMS(Int)=  0.00077953
 Iteration  6 RMS(Cart)=  0.00000000 RMS(Int)=  0.00077953
 Variable       Old X    -DE/DX   Delta X   Delta X   Delta X     New X
                                 (Linear)    (Quad)   (Total)
    R1        1.90054   0.00102   0.00000   0.00181   0.00181   1.90235
    R2        2.56976  -0.01637   0.00000  -0.02067  -0.02067   2.54910
    R3        1.91354  -0.00141   0.00000  -0.00721  -0.00721   1.90633
    R4        2.82746  -0.00269   0.00000  -0.00122  -0.00122   2.82624
    R5        2.63998   0.00215   0.00000  -0.00490  -0.00490   2.63509
    R6        1.84666  -0.01200   0.00000  -0.02463  -0.02463   1.82203
    R7        2.06007  -0.00161   0.00000  -0.00515  -0.00515   2.05492
    R8        2.07580  -0.00219   0.00000  -0.00481  -0.00481   2.07099
    R9        2.07689  -0.00330   0.00000  -0.00971  -0.00971   2.06718
   R10        2.78035  -0.02156   0.00000  -0.12095  -0.12228   2.65807
   R11        2.66662  -0.01477   0.00000  -0.05275  -0.05275   2.61387
   R12        2.30324  -0.00697   0.00000   0.02006   0.01920   2.32244
   R13        2.53546  -0.00184   0.00000  -0.09916  -0.09689   2.43857
    A1        2.13833  -0.00187   0.00000  -0.01535  -0.01684   2.12149
    A2        2.10314  -0.00110   0.00000  -0.02755  -0.02905   2.07408
    A3        2.04129   0.00295   0.00000   0.04008   0.03860   2.07990
    A4        2.09472  -0.00333   0.00000  -0.02534  -0.02540   2.06932
    A5        2.03677   0.00424   0.00000   0.03175   0.03170   2.06847
    A6        2.15084  -0.00090   0.00000  -0.00568  -0.00573   2.14511
    A7        1.92535   0.00134   0.00000   0.01101   0.01104   1.93638
    A8        1.92416  -0.00181   0.00000  -0.00850  -0.00855   1.91561
    A9        1.95095  -0.00155   0.00000  -0.01299  -0.01303   1.93792
   A10        1.88664   0.00081   0.00000   0.00400   0.00401   1.89065
   A11        1.90045   0.00032   0.00000   0.00465   0.00468   1.90513
   A12        1.87444   0.00098   0.00000   0.00223   0.00212   1.87657
   A13        2.08745   0.00215   0.00000   0.02976   0.02980   2.11725
   A14        2.05676   0.00171   0.00000  -0.00905  -0.00933   2.04743
   A15        1.92998  -0.00490   0.00000  -0.06740  -0.06592   1.86406
   A16        2.04437  -0.00531   0.00000  -0.01034  -0.00986   2.03451
   A17        1.02881   0.00651   0.00000  -0.01390  -0.01364   1.01517
   A18        2.07635   0.00200   0.00000   0.07162   0.07160   2.14795
   A19        1.87728  -0.00492   0.00000   0.00281   0.00281   1.88010
    D1       -0.16880   0.00012   0.00000  -0.04498  -0.04492  -0.21372
    D2        2.92969   0.00042   0.00000  -0.02671  -0.02660   2.90309
    D3        3.00417   0.00108   0.00000   0.05857   0.05845   3.06262
    D4       -0.18052   0.00138   0.00000   0.07683   0.07677  -0.10375
    D5        3.03765  -0.00009   0.00000  -0.11481  -0.11498   2.92267
    D6       -1.16314   0.00061   0.00000  -0.10828  -0.10849  -1.27163
    D7        0.92042  -0.00037   0.00000  -0.11957  -0.11967   0.80075
    D8       -0.05791  -0.00053   0.00000  -0.13523  -0.13508  -0.19299
    D9        2.02449   0.00017   0.00000  -0.12870  -0.12859   1.89590
   D10       -2.17514  -0.00081   0.00000  -0.13998  -0.13977  -2.31491
   D11        0.13301   0.00281   0.00000  -0.10032  -0.10213   0.03088
   D12        2.80843  -0.00196   0.00000  -0.07932  -0.07952   2.72891
   D13       -1.00390  -0.00286   0.00000  -0.05820  -0.05662  -1.06052
   D14       -3.05320   0.00305   0.00000  -0.08190  -0.08343  -3.13663
   D15       -0.37778  -0.00172   0.00000  -0.06090  -0.06082  -0.43860
   D16        2.09308  -0.00261   0.00000  -0.03978  -0.03792   2.05516
   D17       -3.03473  -0.00129   0.00000  -0.57093  -0.57087   2.67758
   D18       -0.34777  -0.00399   0.00000  -0.53968  -0.53864  -0.88641
   D19        0.83448   0.00234   0.00000  -0.53679  -0.53789   0.29659
         Item               Value     Threshold  Converged?
 Maximum Force            0.021558     0.000450     NO 
 RMS     Force            0.005295     0.000300     NO 
 Maximum Displacement     0.397840     0.001800     NO 
 RMS     Displacement     0.117219     0.001200     NO 
 Predicted change in Energy=-4.724845D-03
 GradGradGradGradGradGradGradGradGradGradGradGradGradGradGradGradGradGrad

 Leave Link  103 at Sat Apr 16 15:01:51 2016, MaxMem=   33554432 cpu:       1.0
 (Enter c:\G09w04\l202.exe)
                          Input orientation:                          
 ---------------------------------------------------------------------
 Center     Atomic      Atomic             Coordinates (Angstroms)
 Number     Number       Type             X           Y           Z
 ---------------------------------------------------------------------
      1          7           0        1.168550   -1.342199    0.098482
      2          1           0        2.146829   -1.520016   -0.058855
      3          6           0        0.653935   -0.098480    0.009411
      4          1           0       -2.098702    1.381298   -0.104734
      5          6           0        1.595207    1.061995   -0.054387
      6          6           0       -0.731747    0.045947   -0.049370
      7          1           0        1.072623    1.971034   -0.342533
      8          1           0        2.051187    1.223628    0.928973
      9          1           0        2.404536    0.872465   -0.765506
     10          8           0       -1.586445   -1.069052    0.019593
     11          1           0        0.543570   -2.125978    0.211366
     12          8           0       -1.261310    1.257465    0.356872
     13          1           0       -1.108122   -0.545753   -1.058640
 ---------------------------------------------------------------------
                    Distance matrix (angstroms):
                    1          2          3          4          5
     1  N    0.000000
     2  H    1.006679   0.000000
     3  C    1.348925   2.062561   0.000000
     4  H    4.258364   5.142398   3.127264   0.000000
     5  C    2.446539   2.640282   1.495582   3.708025   0.000000
     6  C    2.357952   3.276969   1.394428   1.911752   2.539112
     7  H    3.343831   3.663581   2.140573   3.234446   1.087416
     8  H    2.837646   2.917625   2.132106   4.279601   1.095920
     9  H    2.679342   2.507934   2.146586   4.579813   1.093904
    10  O    2.769627   3.761231   2.441602   2.506408   3.830110
    11  H    1.008787   1.735122   2.040518   4.402556   3.367452
    12  O    3.567806   4.416179   2.372231   0.964178   2.892582
    13  H    2.675162   3.541675   2.108466   2.367427   3.301721
                    6          7          8          9         10
     6  C    0.000000
     7  H    2.654742   0.000000
     8  H    3.176288   1.770008   0.000000
     9  H    3.321483   1.777569   1.766190   0.000000
    10  O    1.406588   4.055108   4.394966   4.507084   0.000000
    11  H    2.532128   4.167998   3.742690   3.661711   2.385546
    12  O    1.383201   2.538817   3.361708   3.853101   2.373216
    13  H    1.228980   3.406270   4.130683   3.799479   1.290435
                   11         12         13
    11  H    0.000000
    12  O    3.837505   0.000000
    13  H    2.614978   2.297549   0.000000
 Symmetry turned off by external request.
 Stoichiometry    C3H7NO2
 Framework group  C1[X(C3H7NO2)]
 Deg. of freedom    33
 Full point group                 C1      NOp   1
 Rotational constants (GHZ):      4.9446387      3.3044624      2.0506003
 Leave Link  202 at Sat Apr 16 15:01:51 2016, MaxMem=   33554432 cpu:       0.0
 (Enter c:\G09w04\l301.exe)
 Standard basis: 6-311++G(d,p) (5D, 7F)
 Ernie: Thresh=  0.10000D-02 Tol=  0.10000D-05 Strict=F.
 Integral buffers will be    262144 words long.
 Raffenetti 2 integral format.
 Two-electron integral symmetry is turned off.
   181 basis functions,   279 primitive gaussians,   187 cartesian basis functions
    24 alpha electrons       24 beta electrons
       nuclear repulsion energy       247.7938294515 Hartrees.
 IExCor=  402 DFT=T Ex+Corr=B3LYP ExCW=0 ScaHFX=  0.200000
 ScaDFX=  0.800000  0.720000  1.000000  0.810000 ScalE2=  1.000000  1.000000
 IRadAn=      0 IRanWt=     -1 IRanGd=            0 ICorTp=0
 NAtoms=   13 NActive=   13 NUniq=   13 SFac= 1.00D+00 NAtFMM=   50 NAOKFM=F Big=F
 ------------------------------------------------------------------------------
 Polarizable Continuum Model (PCM)
 =================================
 Model                : C-PCM.
 Atomic radii         : UFF (Universal Force Field).
 Polarization charges : Total charges.
 Charge compensation  : None.
 Solution method      : Matrix inversion.
 Cavity type          : Scaled VdW (van der Waals Surface) (Alpha=1.100).
 Cavity algorithm     : GePol (No added spheres)
                        Default sphere list used, NSphG=   13.
                        Lebedev-Laikov grids with approx.  5.0 points / Ang**2.
                        Smoothing algorithm: Karplus/York (Gamma=1.0000).
                        Polarization charges: spherical gaussians, with
                                              point-specific exponents (IZeta= 3).
                        Self-potential: point-specific (ISelfS= 7).
                        Self-field    : sphere-specific E.n sum rule (ISelfD= 2).
 1st derivatives      : Analytical E(r).r(x)/FMM algorithm (CHGder, D1EAlg=3).
                        Cavity 1st derivative terms included.
 Solvent              : Water, Eps=  78.355300 Eps(inf)=   1.777849
 ------------------------------------------------------------------------------
 Spheres list:
 ISph  on   Nord    Re0     Alpha      Xe            Ye            Ze
    1   N      1    1.830   1.100      1.168550     -1.342199      0.098482
    2   H      2    1.443   1.100      2.146829     -1.520016     -0.058855
    3   C      3    1.926   1.100      0.653935     -0.098480      0.009411
    4   H      4    1.443   1.100     -2.098702      1.381298     -0.104734
    5   C      5    1.926   1.100      1.595207      1.061995     -0.054387
    6   C      6    1.926   1.100     -0.731747      0.045947     -0.049370
    7   H      7    1.443   1.100      1.072623      1.971034     -0.342533
    8   H      8    1.443   1.100      2.051187      1.223628      0.928973
    9   H      9    1.443   1.100      2.404536      0.872465     -0.765506
   10   O     10    1.750   1.100     -1.586445     -1.069052      0.019593
   11   H     11    1.443   1.100      0.543570     -2.125978      0.211366
   12   O     12    1.750   1.100     -1.261310      1.257465      0.356872
   13   H     13    1.443   1.100     -1.108122     -0.545753     -1.058640
 ------------------------------------------------------------------------------
 GePol: Number of generator spheres                  =      13
 GePol: Total number of spheres                      =      13
 GePol: Number of exposed spheres                    =      13 (100.00%)
 GePol: Number of points                             =    1113
 GePol: Average weight of points                     =       0.13
 GePol: Minimum weight of points                     =   0.45D-07
 GePol: Maximum weight of points                     =    0.20577
 GePol: Number of points with low weight             =      60
 GePol: Fraction of low-weight points (<1% of avg)   =       5.39%
 GePol: Cavity surface area                          =    149.271 Ang**2
 GePol: Cavity volume                                =    136.939 Ang**3
 Leave Link  301 at Sat Apr 16 15:01:51 2016, MaxMem=   33554432 cpu:       0.0
 (Enter c:\G09w04\l302.exe)
 NPDir=0 NMtPBC=     1 NCelOv=     1 NCel=       1 NClECP=     1 NCelD=      1
         NCelK=      1 NCelE2=     1 NClLst=     1 CellRange=     0.0.
 One-electron integrals computed using PRISM.
 NBasis=   181 RedAO= T  NBF=   181
 NBsUse=   181 1.00D-06 NBFU=   181
 Precomputing XC quadrature grid using
 IXCGrd= 2 IRadAn=           0 IRanWt=          -1 IRanGd=           0 AccXCQ= 0.00D+00.
 NRdTot=     842 NPtTot=      107350 NUsed=      111282 NTot=      111298
 NSgBfM=   187   187   187   187   187 NAtAll=    13    13.
 Leave Link  302 at Sat Apr 16 15:01:51 2016, MaxMem=   33554432 cpu:       0.0
 (Enter c:\G09w04\l303.exe)
 DipDrv:  MaxL=1.
 Leave Link  303 at Sat Apr 16 15:01:51 2016, MaxMem=   33554432 cpu:       0.0
 (Enter c:\G09w04\l401.exe)
 Initial guess read from the read-write file.
 B after Tr=     0.000000    0.000000    0.000000
         Rot=    1.000000    0.000000    0.000000    0.000000 Ang=   0.00 deg.
 Guess basis will be translated and rotated to current coordinates.
 Generating alternative initial guess.
 Harris functional with IExCor=  402 diagonalized for initial guess.
 ExpMin= 3.60D-02 ExpMax= 8.59D+03 ExpMxC= 1.30D+03 IAcc=3 IRadAn=         0 AccDes= 0.00D+00
 HarFok:  IExCor=  402 AccDes= 0.00D+00 IRadAn=         0 IDoV= 1
 ScaDFX=  1.000000  1.000000  1.000000  1.000000
 FoFCou: FMM=F IPFlag=           0 FMFlag=      100000 FMFlg1=           0
         NFxFlg=           0 DoJE=T BraDBF=F KetDBF=T FulRan=T
         Omega=  0.000000  0.000000  1.000000  0.000000  0.000000 ICntrl=     500 IOpCl=  0
         NMat0=    1 NMatS0=    1 NMatT0=    0 NMatD0=    1 NMtDS0=    0 NMtDT0=    0
         I1Cent=           4 NGrid=           0.
 Symmetry not used in FoFCou.
 Harris En= -323.754702169251    
 Leave Link  401 at Sat Apr 16 15:01:58 2016, MaxMem=   33554432 cpu:       7.0
 (Enter c:\G09w04\l502.exe)
 Closed shell SCF:
 Requested convergence on RMS density matrix=1.00D-08 within 128 cycles.
 Requested convergence on MAX density matrix=1.00D-06.
 Requested convergence on             energy=1.00D-06.
 No special actions if energy rises.
 Using DIIS extrapolation, IDIIS=  1040.
 Two-electron integral symmetry not used.
       111165 words used for storage of precomputed grid.
 IEnd=      236371 IEndB=      236371 NGot=    33554432 MDV=    33369858
 LenX=    33369858 LenY=    33334448
 Fock matrices will be formed incrementally for  20 cycles.

 Cycle   1  Pass 1  IDiag  1:
 FoFCou: FMM=F IPFlag=           0 FMFlag=      100000 FMFlg1=           0
         NFxFlg=           0 DoJE=F BraDBF=F KetDBF=F FulRan=T
         Omega=  0.000000  0.000000  1.000000  0.000000  0.000000 ICntrl=       0 IOpCl=  0
         NMat0=    1 NMatS0=    1 NMatT0=    0 NMatD0=    1 NMtDS0=    0 NMtDT0=    0
         I1Cent=           0 NGrid=           0.
 Symmetry not used in FoFCou.
 E= -323.692550887532    
 DIIS: error= 1.16D-02 at cycle   1 NSaved=   1.
 NSaved= 1 IEnMin= 1 EnMin= -323.692550887532     IErMin= 1 ErrMin= 1.16D-02
 ErrMax= 1.16D-02 EMaxC= 1.00D-01 BMatC= 3.75D-02 BMatP= 3.75D-02
 IDIUse=3 WtCom= 8.84D-01 WtEn= 1.16D-01
 Coeff-Com:  0.100D+01
 Coeff-En:   0.100D+01
 Coeff:      0.100D+01
 Recover alternate guess density for next cycle.
 RMSDP=1.51D-02 MaxDP=9.31D-01              OVMax= 0.00D+00

 Cycle   2  Pass 1  IDiag  1:
 RMSU=  8.31D-03    CP:  6.70D-01
 E= -323.557601311187     Delta-E=        0.134949576346 Rises=F Damp=F
 Switch densities from cycles 1 and 2 for lowest energy.
 DIIS: error= 2.32D-02 at cycle   2 NSaved=   2.
 NSaved= 2 IEnMin= 1 EnMin= -323.692550887532     IErMin= 1 ErrMin= 1.16D-02
 ErrMax= 2.32D-02 EMaxC= 1.00D+00 BMatC= 2.48D-01 BMatP= 3.75D-02
 IDIUse=1 WtCom= 1.00D+00 WtEn= 0.00D+00
 Coeff-Com:  0.874D+00 0.126D+00
 Coeff:      0.874D+00 0.126D+00
 Gap=     0.151 Goal=   None    Shift=    0.000
 RMSDP=1.50D-02 MaxDP=1.04D+00 DE= 1.35D-01 OVMax= 1.01D-01

 Cycle   3  Pass 1  IDiag  1:
 RMSU=  3.25D-03    CP:  6.33D-01  8.17D-01
[...]
    A6        2.14215  -0.00001   0.00000  -0.00003  -0.00003   2.14212
    A7        1.93704   0.00000   0.00000  -0.00003  -0.00003   1.93701
    A8        1.91621   0.00000   0.00000   0.00001   0.00001   1.91622
    A9        1.93851   0.00001   0.00000   0.00003   0.00003   1.93854
   A10        1.88911   0.00000   0.00000   0.00001   0.00001   1.88912
   A11        1.90464   0.00000   0.00000  -0.00006  -0.00006   1.90458
   A12        1.87668   0.00000   0.00000   0.00004   0.00004   1.87671
   A13        2.11371   0.00001   0.00000   0.00010   0.00010   2.11381
   A14        2.05417  -0.00002   0.00000   0.00001   0.00001   2.05419
   A15        1.84730   0.00001   0.00000  -0.00018  -0.00018   1.84712
   A16        2.03837   0.00001   0.00000   0.00004   0.00004   2.03841
   A17        1.02309  -0.00001   0.00000   0.00010   0.00010   1.02318
   A18        2.14389   0.00000   0.00000  -0.00015  -0.00015   2.14374
   A19        1.88436   0.00000   0.00000  -0.00007  -0.00007   1.88429
    D1       -0.39973   0.00000   0.00000  -0.00065  -0.00065  -0.40038
    D2        2.74290   0.00000   0.00000  -0.00063  -0.00063   2.74227
    D3       -3.11385   0.00001   0.00000   0.00075   0.00075  -3.11310
    D4        0.02878   0.00001   0.00000   0.00077   0.00077   0.02955
    D5        2.88301   0.00000   0.00000   0.00077   0.00077   2.88379
    D6       -1.31240   0.00000   0.00000   0.00077   0.00077  -1.31163
    D7        0.76086   0.00000   0.00000   0.00084   0.00084   0.76170
    D8       -0.25966   0.00000   0.00000   0.00075   0.00075  -0.25891
    D9        1.82811   0.00000   0.00000   0.00075   0.00075   1.82887
   D10       -2.38181   0.00000   0.00000   0.00082   0.00082  -2.38099
   D11        0.00728  -0.00001   0.00000  -0.00025  -0.00025   0.00702
   D12        2.72441   0.00001   0.00000   0.00016   0.00016   2.72457
   D13       -1.08443   0.00000   0.00000  -0.00027  -0.00027  -1.08470
   D14       -3.13324  -0.00001   0.00000  -0.00023  -0.00023  -3.13347
   D15       -0.41611   0.00001   0.00000   0.00018   0.00018  -0.41592
   D16        2.05825   0.00000   0.00000  -0.00025  -0.00025   2.05800
   D17        2.78041   0.00000   0.00000   0.00113   0.00113   2.78155
   D18       -0.76726   0.00001   0.00000   0.00155   0.00155  -0.76571
   D19        0.42622   0.00000   0.00000   0.00164   0.00164   0.42786
         Item               Value     Threshold  Converged?
 Maximum Force            0.000037     0.000450     YES
 RMS     Force            0.000008     0.000300     YES
 Maximum Displacement     0.001018     0.001800     YES
 RMS     Displacement     0.000394     0.001200     YES
 Predicted change in Energy=-1.961181D-08
 Optimization completed.
    -- Stationary point found.
                           ----------------------------
                           !   Optimized Parameters   !
                           ! (Angstroms and Degrees)  !
 --------------------------                            --------------------------
 ! Name  Definition              Value          Derivative Info.                !
 --------------------------------------------------------------------------------
 ! R1    R(1,2)                  1.0086         -DE/DX =    0.0                 !
 ! R2    R(1,3)                  1.3527         -DE/DX =    0.0                 !
 ! R3    R(1,11)                 1.0102         -DE/DX =    0.0                 !
 ! R4    R(3,5)                  1.4954         -DE/DX =    0.0                 !
 ! R5    R(3,6)                  1.3951         -DE/DX =    0.0                 !
 ! R6    R(4,12)                 0.965          -DE/DX =    0.0                 !
 ! R7    R(5,7)                  1.0876         -DE/DX =    0.0                 !
 ! R8    R(5,8)                  1.0959         -DE/DX =    0.0                 !
 ! R9    R(5,9)                  1.0937         -DE/DX =    0.0                 !
 ! R10   R(6,10)                 1.4141         -DE/DX =    0.0                 !
 ! R11   R(6,12)                 1.3853         -DE/DX =    0.0                 !
 ! R12   R(6,13)                 1.2238         -DE/DX =    0.0                 !
 ! R13   R(10,13)                1.3019         -DE/DX =    0.0                 !
 ! A1    A(2,1,3)              120.3763         -DE/DX =    0.0                 !
 ! A2    A(2,1,11)             117.2224         -DE/DX =    0.0                 !
 ! A3    A(3,1,11)             117.8839         -DE/DX =    0.0                 !
 ! A4    A(1,3,5)              118.5874         -DE/DX =    0.0                 !
 ! A5    A(1,3,6)              118.6762         -DE/DX =    0.0                 !
 ! A6    A(5,3,6)              122.7363         -DE/DX =    0.0                 !
 ! A7    A(3,5,7)              110.984          -DE/DX =    0.0                 !
 ! A8    A(3,5,8)              109.7907         -DE/DX =    0.0                 !
 ! A9    A(3,5,9)              111.0685         -DE/DX =    0.0                 !
 ! A10   A(7,5,8)              108.2382         -DE/DX =    0.0                 !
 ! A11   A(7,5,9)              109.1276         -DE/DX =    0.0                 !
 ! A12   A(8,5,9)              107.5257         -DE/DX =    0.0                 !
 ! A13   A(3,6,10)             121.1064         -DE/DX =    0.0                 !
 ! A14   A(3,6,12)             117.6955         -DE/DX =    0.0                 !
 ! A15   A(3,6,13)             105.8425         -DE/DX =    0.0                 !
 ! A16   A(10,6,12)            116.7901         -DE/DX =    0.0                 !
 ! A17   A(10,6,13)             58.6185         -DE/DX =    0.0                 !
 ! A18   A(12,6,13)            122.8359         -DE/DX =    0.0                 !
 ! A19   A(4,12,6)             107.966          -DE/DX =    0.0                 !
 ! D1    D(2,1,3,5)            -22.9026         -DE/DX =    0.0                 !
 ! D2    D(2,1,3,6)            157.1566         -DE/DX =    0.0                 !
 ! D3    D(11,1,3,5)          -178.4105         -DE/DX =    0.0                 !
 ! D4    D(11,1,3,6)             1.6487         -DE/DX =    0.0                 !
 ! D5    D(1,3,5,7)            165.1845         -DE/DX =    0.0                 !
 ! D6    D(1,3,5,8)            -75.195          -DE/DX =    0.0                 !
 ! D7    D(1,3,5,9)             43.5941         -DE/DX =    0.0                 !
 ! D8    D(6,3,5,7)            -14.8772         -DE/DX =    0.0                 !
 ! D9    D(6,3,5,8)            104.7432         -DE/DX =    0.0                 !
 ! D10   D(6,3,5,9)           -136.4677         -DE/DX =    0.0                 !
 ! D11   D(1,3,6,10)             0.417          -DE/DX =    0.0                 !
 ! D12   D(1,3,6,12)           156.0971         -DE/DX =    0.0                 !
 ! D13   D(1,3,6,13)           -62.133          -DE/DX =    0.0                 !
 ! D14   D(5,3,6,10)          -179.5212         -DE/DX =    0.0                 !
 ! D15   D(5,3,6,12)           -23.8411         -DE/DX =    0.0                 !
 ! D16   D(5,3,6,13)           117.9288         -DE/DX =    0.0                 !
 ! D17   D(3,6,12,4)           159.306          -DE/DX =    0.0                 !
 ! D18   D(10,6,12,4)          -43.9607         -DE/DX =    0.0                 !
 ! D19   D(13,6,12,4)           24.4205         -DE/DX =    0.0                 !
 --------------------------------------------------------------------------------
 GradGradGradGradGradGradGradGradGradGradGradGradGradGradGradGradGradGrad

 Leave Link  103 at Sat Apr 16 16:21:42 2016, MaxMem=   33554432 cpu:       0.0
 (Enter c:\G09w04\l9999.exe)

 Test job not archived.
 1|1|UNPC-WIN-20150318OUM|Freq|RB3LYP|6-311++G(d,p)|C3H7N1O2|ADMINISTRA
 TOR|16-Apr-2016|0||#P Geom=AllCheck Guess=TCheck SCRF=Check Test GenCh
 k RB3LYP/6-311++G(d,p) Freq||Ala-S-opt-freq-cpcm-w-tsa3-6-311++gdp||0,
 1|N,1.1736342086,-1.341096428,0.1476297853|H,2.1209797195,-1.534289150
 8,-0.1396731393|C,0.6603603496,-0.0961615403,0.0194120973|H,-2.1376570
 578,1.3494474944,-0.0648591736|C,1.6027297753,1.0631129809,-0.04601242
 6|C,-0.7252289166,0.0533415944,-0.0450232077|H,1.0966516555,1.95668964
 96,-0.4041065112|H,2.0032122138,1.272572338,0.9524024531|H,2.450353497
 6,0.8442540275,-0.7016180383|O,-1.585175072,-1.0667150269,0.0302288709
 |H,0.5287139844,-2.118429418,0.1661241096|O,-1.2588718166,1.2764004943
 ,0.3271866629|H,-1.0795915413,-0.5467730151,-1.0510214831||Version=IA3
 2W-G09RevB.01|HF=-323.7430752|RMSD=4.160e-009|RMSF=1.277e-005|ZeroPoin
 t=0.1003097|Thermal=0.1076146|Dipole=1.8004221,0.2044428,-0.980317|Dip
 oleDeriv=-1.013976,0.2104694,-0.1732103,1.2775779,-0.9774126,0.2058627
 ,-0.4959528,0.17191,-0.6418444,0.3465513,-0.0346122,0.0589445,0.004848
 4,0.234337,0.0297284,0.2395095,-0.0282183,0.3675757,1.5676053,-0.13464
 01,0.4110678,-1.2380269,0.8767922,-0.2751043,0.6346137,-0.2071204,0.12
 33363,0.4016328,-0.036949,-0.0492444,-0.0943739,0.3643878,-0.0851207,-
 0.1024988,-0.0380455,0.3483058,0.0478184,-0.1505814,-0.0018622,0.04841
 33,-0.0769475,0.0254864,-0.211863,-0.0573633,0.1304566,-0.1182729,-0.2
 103894,-0.3951286,-0.4995582,1.2972134,0.3101346,-2.135669,0.3034005,-
 0.126523,0.0474695,0.0722275,-0.0455435,0.0085159,-0.0201883,0.0430593
 ,-0.01302,0.0723411,0.095051,-0.0243244,-0.071762,-0.0523718,-0.113664
 2,0.0484173,-0.0070104,-0.0955462,-0.0284797,-0.0842513,-0.0923573,-0.
 0024693,0.0940522,0.0291818,0.0301028,-0.0636125,0.1706202,-0.0115886,
 0.032217,-1.6617472,-0.4154132,-0.1314012,-1.2626925,-1.1576049,-0.200
 2546,1.5705626,0.3254718,-0.3959196,0.1554973,-0.0090546,0.0003765,-0.
 0006136,0.2581082,-0.0136934,0.045351,-0.0761894,0.3786358,-0.7079863,
 0.431351,0.2020318,0.5415282,-1.303504,-0.0883583,0.5801366,-0.2369821
 ,-0.4165545,1.0520894,0.3518233,0.0822892,1.2988636,0.4262988,0.118882
 8,-0.1862439,-0.189136,0.1895146|Polar=116.8082503,2.4623525,77.415124
 3,3.9701206,-0.7468614,57.5638354|PG=C01 [X(C3H7N1O2)]|NImag=1||0.8208
 2458,0.01283826,0.75150574,-0.13311126,-0.00620448,0.06896681,-0.40478
 967,0.05974437,0.11432049,0.42164677,0.06296231,-0.08302328,-0.0157723
 6,-0.07293655,0.07832443,0.13470047,-0.02410906,-0.03819240,-0.1203589
 2,0.01754383,0.04325166,-0.16157144,0.06779393,0.01705919,-0.01053153,
 0.03459786,-0.00966126,0.70521192,0.08122934,-0.32844310,0.00875985,0.
 00588794,-0.00307081,0.00563186,-0.02709796,0.66659933,0.00192933,0.02
 042702,-0.03586729,-0.00053327,-0.01033253,-0.00520891,-0.02575734,-0.
 01579465,0.16182201,0.00085616,-0.00298194,0.00166936,-0.00015463,0.00
 013799,-0.00044390,-0.00249811,0.00429037,-0.00269583,0.43489752,0.000
 50139,0.00157534,-0.00114611,0.00019157,-0.00040013,0.00002209,0.00289
 636,-0.00664497,-0.00009508,-0.04937098,0.04578565,0.00100042,0.000202
 59,0.00007817,0.00013723,-0.00007714,0.00041276,-0.00021377,-0.0028264
 7,0.00119259,0.18474142,0.00144650,0.09667240,0.01375835,0.00841362,0.
 00186904,0.00082926,0.00093653,-0.00140132,-0.14477156,-0.06504017,0.0
 0182349,0.00007484,-0.00048031,0.00043382,0.53383284,-0.02290150,-0.03
 774899,0.00292975,-0.00107404,0.00159828,-0.00029711,-0.05691346,-0.16
 257162,0.00722446,-0.00011983,-0.00011163,-0.00003262,-0.05429856,0.53
 893786,0.00327622,0.00465773,0.00352767,-0.00145425,-0.00089861,-0.001
 70849,0.01600943,0.00865404,-0.06885857,0.00005236,0.00028155,-0.00026
 441,-0.00198337,-0.01332234,0.52849084,-0.03226111,0.03906703,-0.01172
 421,0.00326302,-0.00214340,0.00051135,-0.32127504,0.01457303,0.0065947
 8,-0.01679453,0.04139647,0.01608399,-0.01645632,-0.00975464,-0.0127450
 0,0.60952193,0.03748857,-0.00085387,-0.00122101,0.00120183,-0.00534571
 ,0.00186061,0.05115149,-0.10090205,0.01423041,0.00359627,-0.01269555,-
 0.00109283,-0.02219312,0.00588331,-0.00489003,-0.09537498,0.43874068,-
 0.03647611,0.06486592,-0.01283446,0.00836266,0.00025727,0.01060303,0.0
 8465542,-0.04919652,-0.02843009,-0.00079676,0.01082744,0.00422483,0.00
 112929,-0.00098843,-0.00354325,-0.06485098,0.03383806,0.16515298,-0.00
 338743,-0.00351891,-0.00004744,-0.00017560,-0.00024081,0.00017961,0.01
 328969,-0.01781159,0.00860938,-0.00005899,0.00003929,-0.00006995,-0.10
 938883,0.10973821,-0.04383442,-0.00047134,-0.00065372,-0.00088528,0.11
 613270,-0.00490897,-0.00291027,0.00049649,-0.00025174,0.00044102,0.000
 26351,0.01446015,-0.02088659,0.00801267,0.00011941,0.00032197,-0.00014
 173,0.10333985,-0.23119015,0.07520504,0.00074284,-0.00106663,-0.001678
 13,-0.11346437,0.25165329,0.00011733,0.00002629,0.00097038,-0.00011758
 ,0.00030664,-0.00026030,-0.00111502,-0.00189420,-0.00272819,-0.0000750
 8,-0.00018849,0.00006417,-0.04092984,0.07659525,-0.07517348,0.00013286
 ,0.00083142,0.00084360,0.04742508,-0.08195040,0.07740782,0.00027108,0.
 00194200,-0.00005583,0.00011420,0.00000067,-0.00006199,-0.01083563,-0.
 00631624,-0.01879867,0.00007576,-0.00002320,0.00004422,-0.07445542,-0.
 01670400,-0.08604146,-0.00122527,-0.00312889,-0.00259950,-0.00550769,-
 0.00342147,-0.01304333,0.08260856,-0.00044537,0.00104962,0.00094823,-0
 .00022222,-0.00014743,-0.00059819,-0.00945232,-0.00795244,-0.02360059,
 0.00019485,-0.00002454,-0.00003016,-0.01694794,-0.05275995,-0.04367284
 ,-0.00063379,-0.00215676,-0.00254260,0.00846033,0.00641325,0.02434334,
 0.02243954,0.05616699,-0.00003558,0.00079455,-0.00000845,0.00005367,-0
 .00000518,-0.00005803,-0.00207600,-0.00164219,0.00464703,0.00004947,-0
 .00001550,-0.00010095,-0.08330156,-0.04134934,-0.25919423,0.00203204,-
 0.00039832,0.00002301,-0.00256172,-0.00168836,-0.00875960,0.09365308,0
 .04772321,0.28133833,0.00144930,0.00206960,-0.00109444,0.00049825,-0.0
 0094945,0.00058210,-0.02186878,0.00216090,0.01088760,0.00017249,-0.000
 09427,0.00009297,-0.19821779,0.04333436,0.12177755,0.00300749,-0.00209
 322,0.00123110,-0.01008435,0.00171616,0.00811500,0.00972819,-0.0023060
 1,-0.00659499,0.21820694,-0.00025564,0.00215577,-0.00006504,0.00039427
 ,-0.00081516,0.00002662,-0.02445767,0.00486580,0.01708451,0.00004300,0
 .00013012,-0.00010813,0.04374056,-0.06054389,-0.03199260,0.00208749,-0
 .00350022,-0.00006534,0.01819496,-0.00371305,-0.01725701,0.00451136,-0
 .00173555,-0.00307902,-0.04288054,0.06306782,-0.00009397,0.00008278,0.
 00031703,0.00028124,0.00079583,-0.00005909,-0.00166839,-0.00019747,-0.
 00004160,-0.00007343,-0.00002354,0.00004575,0.12312342,-0.03162549,-0.
 13895341,-0.00026154,0.00043262,0.00166583,-0.00934187,0.00099834,0.00
 750491,0.02286633,-0.00653259,-0.01778079,-0.13421604,0.03626545,0.148
 47978,-0.00646644,0.01474822,-0.00428730,0.00115440,-0.00042326,-0.000
 07474,-0.00441960,-0.05386487,0.01751591,0.00150811,-0.00332553,-0.000
 56100,-0.00318922,0.00453271,-0.00259905,-0.16064831,-0.08930441,-0.01
 453329,0.00008972,-0.00010578,0.00027856,-0.00233375,-0.00172195,-0.00
 041516,-0.00186541,-0.00212169,0.00069246,0.16051354,-0.00924199,0.028
 11249,-0.01081124,0.00378730,0.00247369,0.00444903,0.02443462,-0.03394
 259,0.01014838,-0.00072988,0.00342257,-0.00160011,0.00051889,0.0022593
 6,-0.00091414,-0.11304349,-0.16290889,-0.03847580,-0.00036011,-0.00010
 159,0.00016544,-0.00156922,-0.00086972,-0.00044847,-0.00135245,-0.0012
 0227,0.00111884,0.11125263,0.18846752,0.02116624,-0.03803484,0.0071648
 0,-0.00414253,-0.00175103,-0.00460581,-0.07446195,0.02703618,-0.006462
 81,-0.00134368,0.00443189,-0.00317314,-0.00135058,0.00161710,0.0116949
 7,0.12842507,0.09143992,0.06286432,0.00037928,0.00040072,-0.00045976,0
 .00293143,0.00227034,-0.00056053,-0.00048910,-0.00085366,-0.00125369,-
 0.00655151,0.01008366,-0.02906661,-0.22737940,-0.18474382,0.01356147,-
 0.01039063,-0.02295260,-0.00248635,0.02015593,0.00627737,0.00131503,0.
 00024558,0.00005918,-0.00005487,-0.00094099,0.00281450,0.00022537,-0.0
 0315081,0.00290456,-0.00794630,0.00048614,0.00064656,-0.00013191,-0.00
 017324,0.00008002,-0.00008399,-0.00014561,0.00000185,-0.00003996,-0.00
 096619,-0.00733683,0.00646635,0.21977950,-0.18351390,-0.29074784,0.005
 32938,0.00781995,0.01132672,0.00006662,-0.02046890,-0.02590082,-0.0001
 8272,0.00012220,-0.00008003,0.00011395,0.00435629,-0.00243222,0.001240
 93,-0.00195410,-0.00243162,-0.00143750,-0.00103551,-0.00082204,-0.0001
 5892,0.00000458,0.00018139,-0.00021409,-0.00002248,0.00028553,0.000051
 98,-0.00246120,0.00188314,0.00024778,0.19721687,0.30760686,0.00591832,
 -0.01251348,-0.00580977,0.00442168,0.00859403,-0.00451960,-0.00314803,
 0.00978473,-0.00311643,-0.00009017,0.00015873,-0.00016071,0.00060655,-
 0.00010186,0.00414423,0.00299203,0.00045172,0.00087129,-0.00034895,-0.
 00017762,0.00077119,0.00045906,0.00100015,0.00000484,-0.00056739,-0.00
 037451,0.00011933,0.00168219,0.00013525,-0.00280869,-0.01048424,-0.006
 14442,0.01206079,-0.00880429,0.00228306,-0.00139765,-0.00002891,0.0018
 2308,-0.00074739,-0.01680459,0.04061533,0.01732126,-0.41890079,0.00532
 359,-0.20147706,-0.00021985,0.00138191,0.00212829,-0.12099633,0.078149
 94,0.02088812,-0.00107002,0.00105261,-0.00042752,-0.00004406,-0.000689
 69,-0.00061387,-0.00105877,0.00078802,-0.00059945,0.01892336,-0.015200
 94,-0.01881950,-0.00021950,-0.00065383,0.00054184,0.55825360,0.0070704
 2,-0.00951046,0.00457721,-0.00100246,-0.00051396,-0.00106644,0.0006961
 3,-0.00389378,-0.01358940,0.04629366,-0.03393335,0.00549233,-0.0018643
 2,-0.00178235,0.00168498,0.05469230,-0.18435273,-0.04815871,0.00019588
 ,0.00145541,-0.00045693,0.00083875,0.00098557,0.00042077,0.00026352,0.
 00079395,-0.00046727,-0.00172404,-0.05053756,-0.01592727,-0.00029853,0
 .00105696,-0.00050414,-0.10829372,0.29505939,0.00472916,-0.01379828,0.
 00980060,-0.00154455,0.00091552,-0.00060877,-0.01656470,0.01245939,-0.
 00831299,-0.18018493,-0.01306399,-0.10095360,-0.00031509,-0.00059205,-
 0.00089397,0.01705364,-0.04830194,-0.05810010,0.00041379,0.00032433,-0
 .00017388,0.00023884,0.00047530,0.00020616,0.00030334,0.00027240,-0.00
 017259,-0.00955205,-0.00076764,0.00628273,0.00127567,0.00058461,-0.000
 89479,0.17351080,0.07496425,0.15411784,0.00750033,-0.01765541,0.003238
 58,-0.00143493,-0.00081236,-0.00073764,-0.04408125,0.01509655,-0.01821
 166,0.00057659,0.00288645,-0.00015742,-0.00085531,-0.00003566,0.005188
 34,0.05748663,0.03825567,0.01182162,0.00014601,0.00007475,-0.00022855,
 0.00177727,0.00124453,-0.00010538,0.00017806,-0.00004596,-0.00066879,-
 0.00230021,0.00884148,-0.05220950,0.00269922,0.00059002,-0.00198289,-0
 .00902987,0.00313241,0.01063607,-0.01266255,0.01917707,-0.03116115,0.0
 1217933,-0.00354024,-0.00084766,-0.00379337,-0.05764022,0.02274363,-0.
 01353247,-0.00159510,0.00265457,-0.00134617,-0.00048131,0.00046200,0.0
 0396628,0.07034527,0.03159003,0.03275435,0.00045635,0.00040537,-0.0003
 6243,0.00142611,0.00084956,-0.00009807,0.00015389,0.00021115,-0.000899
 47,0.02451916,0.02294385,-0.08096080,0.00533086,0.00007397,-0.00030858
 ,-0.00657937,-0.01482710,-0.01347188,-0.05157247,-0.03509821,-0.003120
 56,0.00360326,0.00188690,0.00057414,0.00042373,0.00095397,0.01694242,-
 0.00077454,-0.00863475,-0.00080885,-0.00263548,0.00196215,0.00029615,-
 0.00005731,0.00073209,-0.08424402,-0.08718064,-0.14334098,0.00008251,-
 0.00006484,-0.00000686,0.00040782,0.00021641,0.00024321,-0.00002769,0.
 00014634,0.00012853,0.01840499,0.02691680,-0.03961580,-0.00161628,0.00
 050239,-0.00066169,0.00969214,-0.00696938,-0.00029665,0.04341722,0.065
 87327,0.18664988||0.00001584,-0.00000259,-0.00000773,0.00000760,0.0000
 0275,0.00000685,-0.00000575,-0.00000057,-0.00000002,-0.00000151,-0.000
 00427,-0.00000805,-0.00000322,0.00001135,-0.00000573,-0.00002850,-0.00
 003097,-0.00002844,-0.00000608,0.00000119,-0.00000806,0.00000065,0.000
 00817,-0.00000855,0.00000019,-0.00000286,-0.00000210,0.00002369,0.0000
 2590,0.00002300,0.00000119,-0.00000092,0.00001811,-0.00001663,-0.00000
 782,0.00001207,0.00001253,0.00000064,0.00000865|||@


 Other things may change us, but we start and end with family.
 -- Anthony Brandt
 Job cpu time:  0 days  0 hours 16 minutes 26.0 seconds.
 File lengths (MBytes):  RWF=     60 Int=      0 D2E=      0 Chk=      9 Scr=      1
 Normal termination of Gaussian 09 at Sat Apr 16 16:21:42 2016.
