 Entering Gaussian System, Link 0=g09
 Input=/root/gau/com/wcom/329/test/Phe-S-opt-6-311gdp.com
 Output=/root/gau/com/wcom/329/test/Phe-S-opt-6-311gdp.log
 Initial command:
 /usr/local/gau/g09/l1.exe "/tmp/Gau-3975.inp" -scrdir="/tmp/"
 Entering Link 1 = /usr/local/gau/g09/l1.exe PID=      3978.
  
 Copyright (c) 1988,1990,1992,1993,1995,1998,2003,2009,2013,
            Gaussian, Inc.  All Rights Reserved.
  
 This is part of the Gaussian(R) 09 program.  It is based on
 the Gaussian(R) 03 system (copyright 2003, Gaussian, Inc.),
 the Gaussian(R) 98 system (copyright 1998, Gaussian, Inc.),
 the Gaussian(R) 94 system (copyright 1995, Gaussian, Inc.),
 the Gaussian 92(TM) system (copyright 1992, Gaussian, Inc.),
 the Gaussian 90(TM) system (copyright 1990, Gaussian, Inc.),
 the Gaussian 88(TM) system (copyright 1988, Gaussian, Inc.),
 the Gaussian 86(TM) system (copyright 1986, Carnegie Mellon
 University), and the Gaussian 82(TM) system (copyright 1983,
 Carnegie Mellon University). Gaussian is a federally registered
 trademark of Gaussian, Inc.
  
 This software contains proprietary and confidential information,
 including trade secrets, belonging to Gaussian, Inc.
  
 This software is provided under written license and may be
 used, copied, transmitted, or stored only in accord with that
 written license.
  
 The following legend is applicable only to US Government
 contracts under FAR:
  
                    RESTRICTED RIGHTS LEGEND
  
 Use, reproduction and disclosure by the US Government is
 subject to restrictions as set forth in subparagraphs (a)
 and (c) of the Commercial Computer Software - Restricted
 Rights clause in FAR 52.227-19.
  
 Gaussian, Inc.
 340 Quinnipiac St., Bldg. 40, Wallingford CT 06492
  
  
 ---------------------------------------------------------------
 Warning -- This program may not be used in any manner that
 competes with the business of Gaussian, Inc. or will provide
 assistance to any competitor of Gaussian, Inc.  The licensee
 of this program is prohibited from giving any competitor of
 Gaussian, Inc. access to this program.  By using this program,
 the user acknowledges that Gaussian, Inc. is engaged in the
 business of creating and licensing software in the field of
 computational chemistry and represents and warrants to the
 licensee that it is not a competitor of Gaussian, Inc. and that
 it will not use this program in any manner prohibited above.
 ---------------------------------------------------------------
  

 Cite this work as:
 Gaussian 09, Revision D.01,
 M. J. Frisch, G. W. Trucks, H. B. Schlegel, G. E. Scuseria, 
 M. A. Robb, J. R. Cheeseman, G. Scalmani, V. Barone, B. Mennucci, 
 G. A. Petersson, H. Nakatsuji, M. Caricato, X. Li, H. P. Hratchian, 
 A. F. Izmaylov, J. Bloino, G. Zheng, J. L. Sonnenberg, M. Hada, 
 M. Ehara, K. Toyota, R. Fukuda, J. Hasegawa, M. Ishida, T. Nakajima, 
 Y. Honda, O. Kitao, H. Nakai, T. Vreven, J. A. Montgomery, Jr., 
 J. E. Peralta, F. Ogliaro, M. Bearpark, J. J. Heyd, E. Brothers, 
 K. N. Kudin, V. N. Staroverov, T. Keith, R. Kobayashi, J. Normand, 
 K. Raghavachari, A. Rendell, J. C. Burant, S. S. Iyengar, J. Tomasi, 
 M. Cossi, N. Rega, J. M. Millam, M. Klene, J. E. Knox, J. B. Cross, 
 V. Bakken, C. Adamo, J. Jaramillo, R. Gomperts, R. E. Stratmann, 
 O. Yazyev, A. J. Austin, R. Cammi, C. Pomelli, J. W. Ochterski, 
 R. L. Martin, K. Morokuma, V. G. Zakrzewski, G. A. Voth, 
 P. Salvador, J. J. Dannenberg, S. Dapprich, A. D. Daniels, 
 O. Farkas, J. B. Foresman, J. V. Ortiz, J. Cioslowski, 
 and D. J. Fox, Gaussian, Inc., Wallingford CT, 2013.
 
 ******************************************
 Gaussian 09:  ES64L-G09RevD.01 24-Apr-2013
                29-Mar-2016 
 ******************************************
 %chk=Phe-S-opt-6-311gdp.chk
 -------------------------
 # opt b3lyp/6-311++g(d,p)
 -------------------------
 1/14=-1,18=20,19=15,26=3,38=1/1,3;
 2/9=110,12=2,17=6,18=5,40=1/2;
 3/5=4,6=6,7=1111,11=2,16=1,25=1,30=1,71=1,74=-5/1,2,3;
 4//1;
 5/5=2,38=5/2;
 6/7=2,8=2,9=2,10=2,28=1/1;
 7//1,2,3,16;
 1/14=-1,18=20,19=15,26=3/3(2);
 2/9=110/2;
 99//99;
 2/9=110/2;
 3/5=4,6=6,7=1111,11=2,16=1,25=1,30=1,71=1,74=-5/1,2,3;
 4/5=5,16=3,69=1/1;
 5/5=2,38=5/2;
 7//1,2,3,16;
 1/14=-1,18=20,19=15,26=3/3(-5);
 2/9=110/2;
 6/7=2,8=2,9=2,10=2,19=2,28=1/1;
 99/9=1/99;
 -----------------------
 Phe-S-opt-6-311++g(d,p)
 -----------------------
 Symbolic Z-matrix:
 Charge =  0 Multiplicity = 1
 N                    -3.028    -1.25234  -0.07174 
 H                    -3.3791   -0.85245  -0.93716 
 C                    -1.70307  -0.71411   0.23549 
 H                    -1.40214  -1.07791   1.21992 
 C                    -0.60161  -1.07911  -0.80264 
 C                    -1.85486   0.79997   0.31429 
 H                    -0.58933  -2.17171  -0.87681 
 H                    -0.91659  -0.6915   -1.77568 
 C                     0.78161  -0.57323  -0.45929 
 O                    -2.30196   1.47935  -0.57739 
 C                     1.28386   0.59744  -1.0386 
 C                     1.58113  -1.25346   0.46726 
 H                     0.68107   1.13518  -1.76336 
 C                     2.54781   1.07789  -0.69865 
 C                     2.84391  -0.77635   0.81003 
 H                     1.21452  -2.16955   0.92069 
 H                     2.92121   1.9845   -1.162 
 C                     3.3314    0.39321   0.22785 
 H                     3.44929  -1.31948   1.52733 
 H                     4.3155    0.76429   0.49101 
 H                    -2.99191  -2.26044  -0.17893 
 O                    -1.42673   1.31049   1.4852 
 H                    -1.53811   2.27314   1.44018 
 

 GradGradGradGradGradGradGradGradGradGradGradGradGradGradGradGradGradGrad
 Berny optimization.
 Initialization pass.
                           ----------------------------
                           !    Initial Parameters    !
                           ! (Angstroms and Degrees)  !
 --------------------------                            --------------------------
 ! Name  Definition              Value          Derivative Info.                !
 --------------------------------------------------------------------------------
 ! R1    R(1,2)                  1.0159         estimate D2E/DX2                !
 ! R2    R(1,3)                  1.4627         estimate D2E/DX2                !
 ! R3    R(1,21)                 1.0144         estimate D2E/DX2                !
 ! R4    R(3,4)                  1.0918         estimate D2E/DX2                !
 ! R5    R(3,5)                  1.557          estimate D2E/DX2                !
 ! R6    R(3,6)                  1.5237         estimate D2E/DX2                !
 ! R7    R(5,7)                  1.0952         estimate D2E/DX2                !
 ! R8    R(5,8)                  1.0937         estimate D2E/DX2                !
 ! R9    R(5,9)                  1.5123         estimate D2E/DX2                !
 ! R10   R(6,10)                 1.2069         estimate D2E/DX2                !
 ! R11   R(6,22)                 1.3472         estimate D2E/DX2                !
 ! R12   R(9,11)                 1.3994         estimate D2E/DX2                !
 ! R13   R(9,12)                 1.4002         estimate D2E/DX2                !
 ! R14   R(11,13)                1.0853         estimate D2E/DX2                !
 ! R15   R(11,14)                1.3943         estimate D2E/DX2                !
 ! R16   R(12,15)                1.3927         estimate D2E/DX2                !
 ! R17   R(12,16)                1.0859         estimate D2E/DX2                !
 ! R18   R(14,17)                1.0845         estimate D2E/DX2                !
 ! R19   R(14,18)                1.3933         estimate D2E/DX2                !
 ! R20   R(15,18)                1.3944         estimate D2E/DX2                !
 ! R21   R(15,19)                1.0844         estimate D2E/DX2                !
 ! R22   R(18,20)                1.0842         estimate D2E/DX2                !
 ! R23   R(22,23)                0.9701         estimate D2E/DX2                !
 ! A1    A(2,1,3)              110.3111         estimate D2E/DX2                !
 ! A2    A(2,1,21)             108.2669         estimate D2E/DX2                !
 ! A3    A(3,1,21)             110.8329         estimate D2E/DX2                !
 ! A4    A(1,3,4)              108.4472         estimate D2E/DX2                !
 ! A5    A(1,3,5)              114.4873         estimate D2E/DX2                !
 ! A6    A(1,3,6)              106.6346         estimate D2E/DX2                !
 ! A7    A(4,3,5)              109.1531         estimate D2E/DX2                !
 ! A8    A(4,3,6)              108.176          estimate D2E/DX2                !
 ! A9    A(5,3,6)              109.7497         estimate D2E/DX2                !
 ! A10   A(3,5,7)              106.6768         estimate D2E/DX2                !
 ! A11   A(3,5,8)              107.8407         estimate D2E/DX2                !
 ! A12   A(3,5,9)              114.6613         estimate D2E/DX2                !
 ! A13   A(7,5,8)              107.2492         estimate D2E/DX2                !
 ! A14   A(7,5,9)              109.8061         estimate D2E/DX2                !
 ! A15   A(8,5,9)              110.2938         estimate D2E/DX2                !
 ! A16   A(3,6,10)             123.9219         estimate D2E/DX2                !
 ! A17   A(3,6,22)             112.9445         estimate D2E/DX2                !
 ! A18   A(10,6,22)            123.1317         estimate D2E/DX2                !
 ! A19   A(5,9,11)             120.9385         estimate D2E/DX2                !
 ! A20   A(5,9,12)             120.6639         estimate D2E/DX2                !
 ! A21   A(11,9,12)            118.3865         estimate D2E/DX2                !
 ! A22   A(9,11,13)            119.4463         estimate D2E/DX2                !
 ! A23   A(9,11,14)            120.8434         estimate D2E/DX2                !
 ! A24   A(13,11,14)           119.7101         estimate D2E/DX2                !
 ! A25   A(9,12,15)            120.9419         estimate D2E/DX2                !
 ! A26   A(9,12,16)            119.5628         estimate D2E/DX2                !
 ! A27   A(15,12,16)           119.4942         estimate D2E/DX2                !
 ! A28   A(11,14,17)           119.7378         estimate D2E/DX2                !
 ! A29   A(11,14,18)           120.1753         estimate D2E/DX2                !
 ! A30   A(17,14,18)           120.0862         estimate D2E/DX2                !
 ! A31   A(12,15,18)           120.1023         estimate D2E/DX2                !
 ! A32   A(12,15,19)           119.8259         estimate D2E/DX2                !
 ! A33   A(18,15,19)           120.0712         estimate D2E/DX2                !
 ! A34   A(14,18,15)           119.5502         estimate D2E/DX2                !
 ! A35   A(14,18,20)           120.2463         estimate D2E/DX2                !
 ! A36   A(15,18,20)           120.2028         estimate D2E/DX2                !
 ! A37   A(6,22,23)            107.4098         estimate D2E/DX2                !
 ! D1    D(2,1,3,4)            173.9324         estimate D2E/DX2                !
 ! D2    D(2,1,3,5)            -63.9284         estimate D2E/DX2                !
 ! D3    D(2,1,3,6)             57.646          estimate D2E/DX2                !
 ! D4    D(21,1,3,4)           -66.1703         estimate D2E/DX2                !
 ! D5    D(21,1,3,5)            55.9689         estimate D2E/DX2                !
 ! D6    D(21,1,3,6)           177.5434         estimate D2E/DX2                !
 ! D7    D(1,3,5,7)            -55.7916         estimate D2E/DX2                !
 ! D8    D(1,3,5,8)             59.1442         estimate D2E/DX2                !
 ! D9    D(1,3,5,9)           -177.5783         estimate D2E/DX2                !
 ! D10   D(4,3,5,7)             65.9622         estimate D2E/DX2                !
 ! D11   D(4,3,5,8)           -179.102          estimate D2E/DX2                !
 ! D12   D(4,3,5,9)            -55.8245         estimate D2E/DX2                !
 ! D13   D(6,3,5,7)           -175.6424         estimate D2E/DX2                !
 ! D14   D(6,3,5,8)            -60.7066         estimate D2E/DX2                !
 ! D15   D(6,3,5,9)             62.5708         estimate D2E/DX2                !
 ! D16   D(1,3,6,10)           -56.1077         estimate D2E/DX2                !
 ! D17   D(1,3,6,22)           124.3809         estimate D2E/DX2                !
 ! D18   D(4,3,6,10)          -172.575          estimate D2E/DX2                !
 ! D19   D(4,3,6,22)             7.9136         estimate D2E/DX2                !
 ! D20   D(5,3,6,10)            68.4267         estimate D2E/DX2                !
 ! D21   D(5,3,6,22)          -111.0847         estimate D2E/DX2                !
 ! D22   D(3,5,9,11)           -98.803          estimate D2E/DX2                !
 ! D23   D(3,5,9,12)            79.9679         estimate D2E/DX2                !
 ! D24   D(7,5,9,11)           141.1321         estimate D2E/DX2                !
 ! D25   D(7,5,9,12)           -40.0969         estimate D2E/DX2                !
 ! D26   D(8,5,9,11)            23.1492         estimate D2E/DX2                !
 ! D27   D(8,5,9,12)          -158.0798         estimate D2E/DX2                !
 ! D28   D(3,6,22,23)          178.5826         estimate D2E/DX2                !
 ! D29   D(10,6,22,23)          -0.9332         estimate D2E/DX2                !
 ! D30   D(5,9,11,13)           -1.5663         estimate D2E/DX2                !
 ! D31   D(5,9,11,14)          178.5893         estimate D2E/DX2                !
 ! D32   D(12,9,11,13)         179.6353         estimate D2E/DX2                !
 ! D33   D(12,9,11,14)          -0.209          estimate D2E/DX2                !
 ! D34   D(5,9,12,15)         -178.5558         estimate D2E/DX2                !
 ! D35   D(5,9,12,16)            1.8356         estimate D2E/DX2                !
 ! D36   D(11,9,12,15)           0.246          estimate D2E/DX2                !
 ! D37   D(11,9,12,16)        -179.3627         estimate D2E/DX2                !
 ! D38   D(9,11,14,17)         179.7207         estimate D2E/DX2                !
 ! D39   D(9,11,14,18)           0.0237         estimate D2E/DX2                !
 ! D40   D(13,11,14,17)         -0.1233         estimate D2E/DX2                !
 ! D41   D(13,11,14,18)       -179.8203         estimate D2E/DX2                !
 ! D42   D(9,12,15,18)          -0.0974         estimate D2E/DX2                !
 ! D43   D(9,12,15,19)        -179.7949         estimate D2E/DX2                !
 ! D44   D(16,12,15,18)        179.5115         estimate D2E/DX2                !
 ! D45   D(16,12,15,19)         -0.186          estimate D2E/DX2                !
 ! D46   D(11,14,18,15)          0.1294         estimate D2E/DX2                !
 ! D47   D(11,14,18,20)        179.8324         estimate D2E/DX2                !
 ! D48   D(17,14,18,15)       -179.5666         estimate D2E/DX2                !
 ! D49   D(17,14,18,20)          0.1365         estimate D2E/DX2                !
 ! D50   D(12,15,18,14)         -0.0929         estimate D2E/DX2                !
 ! D51   D(12,15,18,20)       -179.7961         estimate D2E/DX2                !
 ! D52   D(19,15,18,14)        179.6038         estimate D2E/DX2                !
 ! D53   D(19,15,18,20)         -0.0994         estimate D2E/DX2                !
 --------------------------------------------------------------------------------
 Trust Radius=3.00D-01 FncErr=1.00D-07 GrdErr=1.00D-06
 Number of steps in this run=    123 maximum allowed number of steps=    138.
 GradGradGradGradGradGradGradGradGradGradGradGradGradGradGradGradGradGrad

                          Input orientation:                          
 ---------------------------------------------------------------------
 Center     Atomic      Atomic             Coordinates (Angstroms)
 Number     Number       Type             X           Y           Z
 ---------------------------------------------------------------------
      1          7           0       -3.028003   -1.252341   -0.071738
      2          1           0       -3.379105   -0.852449   -0.937162
      3          6           0       -1.703065   -0.714105    0.235489
      4          1           0       -1.402143   -1.077909    1.219920
      5          6           0       -0.601609   -1.079106   -0.802637
      6          6           0       -1.854863    0.799973    0.314293
      7          1           0       -0.589327   -2.171711   -0.876814
      8          1           0       -0.916589   -0.691498   -1.775675
      9          6           0        0.781610   -0.573225   -0.459293
     10          8           0       -2.301957    1.479353   -0.577391
     11          6           0        1.283865    0.597444   -1.038600
     12          6           0        1.581135   -1.253462    0.467264
     13          1           0        0.681072    1.135179   -1.763364
     14          6           0        2.547810    1.077887   -0.698648
     15          6           0        2.843910   -0.776350    0.810032
     16          1           0        1.214519   -2.169548    0.920692
     17          1           0        2.921206    1.984501   -1.161999
     18          6           0        3.331398    0.393211    0.227849
     19          1           0        3.449286   -1.319480    1.527331
     20          1           0        4.315496    0.764288    0.491009
     21          1           0       -2.991912   -2.260440   -0.178931
     22          8           0       -1.426733    1.310487    1.485203
     23          1           0       -1.538110    2.273144    1.440177
 ---------------------------------------------------------------------
                    Distance matrix (angstroms):
                    1          2          3          4          5
     1  N    0.000000
     2  H    1.015946   0.000000
     3  C    1.462719   2.050209   0.000000
     4  H    2.083801   2.934657   1.091793   0.000000
     5  C    2.540002   2.789973   1.556964   2.175222   0.000000
     6  C    2.395260   2.572926   1.523708   2.133438   2.519746
     7  H    2.727733   3.086576   2.145285   2.500673   1.095189
     8  H    2.770563   2.606337   2.159592   3.059193   1.093735
     9  C    3.889030   4.197365   2.583831   2.800578   1.512315
    10  O    2.871408   2.593643   2.414685   3.252627   3.080200
    11  C    4.790483   4.884236   3.502172   3.888747   2.534070
    12  C    4.640547   5.170802   3.336255   3.081761   2.531288
    13  H    4.724308   4.595466   3.619306   4.258817   2.733373
    14  C    6.075580   6.237900   4.706781   4.891880   3.818675
    15  C    5.956799   6.464085   4.583553   4.276437   3.816277
    16  H    4.452547   5.127158   3.331684   2.850988   2.730797
    17  H    6.859949   6.913230   5.533473   5.808893   4.682420
    18  C    6.575681   6.923855   5.154806   5.055176   4.324137
    19  H    6.672091   7.274528   5.346219   4.867157   4.679346
    20  H    7.636129   7.991270   6.202743   6.051149   5.408285
    21  H    1.014424   1.645379   2.055243   2.425393   2.738267
    22  O    3.399444   3.789181   2.395228   2.403209   3.409574
    23  H    4.115181   4.337088   3.225235   3.361035   4.140632
                    6          7          8          9         10
     6  C    0.000000
     7  H    3.442561   0.000000
     8  H    2.733644   1.762408   0.000000
     9  C    3.071661   2.146847   2.151913   0.000000
    10  O    1.206876   4.043887   2.840374   3.706131   0.000000
    11  C    3.423879   3.347124   2.654552   1.399400   3.721370
    12  C    4.005756   2.713049   3.403705   1.400168   4.861891
    13  H    3.295449   3.651768   2.426813   2.151593   3.228536
    14  C    4.526236   4.520316   4.036430   2.429593   4.867866
    15  C    4.980866   4.071806   4.564475   2.430129   5.787321
    16  H    4.313570   2.546546   3.741210   2.154070   5.284348
    17  H    5.137449   5.447868   4.718711   3.407877   5.279997
    18  C    5.202906   4.813646   4.820383   2.812042   5.793341
    19  H    5.839310   4.776673   5.510452   3.408822   6.733507
    20  H    6.172993   5.877782   5.884886   3.896199   6.741178
    21  H    3.301860   2.503463   3.052562   4.143038   3.823724
    22  O    1.347201   4.290230   3.860248   3.493739   2.246959
    23  H    1.881005   5.101507   4.417815   4.134115   2.298727
                   11         12         13         14         15
    11  C    0.000000
    12  C    2.404547   0.000000
    13  H    1.085266   3.389900   0.000000
    14  C    1.394257   2.780108   2.149794   0.000000
    15  C    2.781814   1.392741   3.867064   2.408731   0.000000
    16  H    3.391147   1.085918   4.290682   3.865975   2.146663
    17  H    2.149428   3.864543   2.470058   1.084466   3.393697
    18  C    2.416195   2.415010   3.397010   1.393265   1.394437
    19  H    3.866219   2.148974   4.951468   3.393378   1.084430
    20  H    3.399754   3.398325   4.292878   2.153681   2.154276
    21  H    5.214287   4.726979   5.247044   6.488687   6.102245
    22  O    3.771650   4.081336   3.876436   4.540958   4.800952
    23  H    4.112888   4.807619   4.059853   4.764237   5.375742
                   16         17         18         19         20
    16  H    0.000000
    17  H    4.950405   0.000000
    18  C    3.395430   2.152240   0.000000
    19  H    2.466740   4.292744   2.153105   0.000000
    20  H    4.290464   2.483022   1.084159   2.483219   0.000000
    21  H    4.348735   7.345128   6.869613   6.729470   7.937003
    22  O    4.405170   5.134836   5.006211   5.540222   5.853200
    23  H    5.252080   5.171087   5.358731   6.147248   6.119010
                   21         22         23
    21  H    0.000000
    22  O    4.239180   0.000000
    23  H    5.028761   0.970124   0.000000
 Stoichiometry    C9H11NO2
 Framework group  C1[X(C9H11NO2)]
 Deg. of freedom    63
 Full point group                 C1      NOp   1
 Largest Abelian subgroup         C1      NOp   1
 Largest concise Abelian subgroup C1      NOp   1
                         Standard orientation:                         
 ---------------------------------------------------------------------
 Center     Atomic      Atomic             Coordinates (Angstroms)
 Number     Number       Type             X           Y           Z
 ---------------------------------------------------------------------
      1          7           0       -3.028003   -1.252341   -0.071738
      2          1           0       -3.379105   -0.852448   -0.937162
      3          6           0       -1.703065   -0.714105    0.235489
      4          1           0       -1.402143   -1.077909    1.219920
      5          6           0       -0.601609   -1.079106   -0.802637
      6          6           0       -1.854863    0.799973    0.314293
      7          1           0       -0.589327   -2.171711   -0.876814
      8          1           0       -0.916589   -0.691498   -1.775675
      9          6           0        0.781610   -0.573225   -0.459293
     10          8           0       -2.301957    1.479353   -0.577391
     11          6           0        1.283865    0.597444   -1.038600
     12          6           0        1.581135   -1.253462    0.467264
     13          1           0        0.681072    1.135179   -1.763364
     14          6           0        2.547810    1.077887   -0.698648
     15          6           0        2.843910   -0.776350    0.810032
     16          1           0        1.214519   -2.169548    0.920692
     17          1           0        2.921206    1.984501   -1.161999
     18          6           0        3.331398    0.393211    0.227849
     19          1           0        3.449286   -1.319480    1.527331
     20          1           0        4.315496    0.764288    0.491009
     21          1           0       -2.991912   -2.260440   -0.178931
     22          8           0       -1.426733    1.310487    1.485203
     23          1           0       -1.538110    2.273144    1.440177
 ---------------------------------------------------------------------
 Rotational constants (GHZ):      1.7375271      0.5889405      0.5314752
 Standard basis: 6-311++G(d,p) (5D, 7F)
 There are   353 symmetry adapted cartesian basis functions of A   symmetry.
 There are   341 symmetry adapted basis functions of A   symmetry.
   341 basis functions,   531 primitive gaussians,   353 cartesian basis functions
    44 alpha electrons       44 beta electrons
       nuclear repulsion energy       681.6769228643 Hartrees.
 NAtoms=   23 NActive=   23 NUniq=   23 SFac= 1.00D+00 NAtFMM=   60 NAOKFM=F Big=F
 Integral buffers will be    131072 words long.
 Raffenetti 2 integral format.
 Two-electron integral symmetry is turned on.
 One-electron integrals computed using PRISM.
 NBasis=   341 RedAO= T EigKep=  2.78D-06  NBF=   341
 NBsUse=   340 1.00D-06 EigRej=  7.13D-07 NBFU=   340
 ExpMin= 3.60D-02 ExpMax= 8.59D+03 ExpMxC= 1.30D+03 IAcc=3 IRadAn=         5 AccDes= 0.00D+00
 Harris functional with IExCor=  402 and IRadAn=       5 diagonalized for initial guess.
 HarFok:  IExCor=  402 AccDes= 0.00D+00 IRadAn=         5 IDoV= 1 UseB2=F ITyADJ=14
 ICtDFT=  3500011 ScaDFX=  1.000000  1.000000  1.000000  1.000000
 FoFCou: FMM=F IPFlag=           0 FMFlag=      100000 FMFlg1=           0
         NFxFlg=           0 DoJE=T BraDBF=F KetDBF=T FulRan=T
         wScrn=  0.000000 ICntrl=     500 IOpCl=  0 I1Cent=   200000004 NGrid=           0
         NMat0=    1 NMatS0=      1 NMatT0=    0 NMatD0=    1 NMtDS0=    0 NMtDT0=    0
 Petite list used in FoFCou.
 Requested convergence on RMS density matrix=1.00D-08 within 128 cycles.
 Requested convergence on MAX density matrix=1.00D-06.
 Requested convergence on             energy=1.00D-06.
 No special actions if energy rises.
 SCF Done:  E(RB3LYP) =  -554.958795217     A.U. after   15 cycles
            NFock= 15  Conv=0.26D-08     -V/T= 2.0041

 **********************************************************************

            Population analysis using the SCF density.

 **********************************************************************

 Orbital symmetries:
       Occupied  (A) (A) (A) (A) (A) (A) (A) (A) (A) (A) (A) (A)
                 (A) (A) (A) (A) (A) (A) (A) (A) (A) (A) (A) (A)
                 (A) (A) (A) (A) (A) (A) (A) (A) (A) (A) (A) (A)
                 (A) (A) (A) (A) (A) (A) (A) (A)
       Virtual   (A) (A) (A) (A) (A) (A) (A) (A) (A) (A) (A) (A)
                 (A) (A) (A) (A) (A) (A) (A) (A) (A) (A) (A) (A)
                 (A) (A) (A) (A) (A) (A) (A) (A) (A) (A) (A) (A)
                 (A) (A) (A) (A) (A) (A) (A) (A) (A) (A) (A) (A)
                 (A) (A) (A) (A) (A) (A) (A) (A) (A) (A) (A) (A)
                 (A) (A) (A) (A) (A) (A) (A) (A) (A) (A) (A) (A)
                 (A) (A) (A) (A) (A) (A) (A) (A) (A) (A) (A) (A)
                 (A) (A) (A) (A) (A) (A) (A) (A) (A) (A) (A) (A)
                 (A) (A) (A) (A) (A) (A) (A) (A) (A) (A) (A) (A)
                 (A) (A) (A) (A) (A) (A) (A) (A) (A) (A) (A) (A)
                 (A) (A) (A) (A) (A) (A) (A) (A) (A) (A) (A) (A)
                 (A) (A) (A) (A) (A) (A) (A) (A) (A) (A) (A) (A)
                 (A) (A) (A) (A) (A) (A) (A) (A) (A) (A) (A) (A)
                 (A) (A) (A) (A) (A) (A) (A) (A) (A) (A) (A) (A)
                 (A) (A) (A) (A) (A) (A) (A) (A) (A) (A) (A) (A)
                 (A) (A) (A) (A) (A) (A) (A) (A) (A) (A) (A) (A)
                 (A) (A) (A) (A) (A) (A) (A) (A) (A) (A) (A) (A)
                 (A) (A) (A) (A) (A) (A) (A) (A) (A) (A) (A) (A)
                 (A) (A) (A) (A) (A) (A) (A) (A) (A) (A) (A) (A)
                 (A) (A) (A) (A) (A) (A) (A) (A) (A) (A) (A) (A)
                 (A) (A) (A) (A) (A) (A) (A) (A) (A) (A) (A) (A)
                 (A) (A) (A) (A) (A) (A) (A) (A) (A) (A) (A) (A)
                 (A) (A) (A) (A) (A) (A) (A) (A) (A) (A) (A) (A)
                 (A) (A) (A) (A) (A) (A) (A) (A) (A) (A) (A) (A)
                 (A) (A) (A) (A) (A) (A) (A) (A)
 The electronic state is 1-A.
 Alpha  occ. eigenvalues --  -19.18348 -19.12606 -14.30937 -10.31543 -10.22753
 Alpha  occ. eigenvalues --  -10.19123 -10.18836 -10.18185 -10.18122 -10.18096
 Alpha  occ. eigenvalues --  -10.17996 -10.17958  -1.12501  -1.03560  -0.90829
 Alpha  occ. eigenvalues --   -0.86717  -0.79232  -0.75458  -0.73526  -0.68474
 Alpha  occ. eigenvalues --   -0.61655  -0.61046  -0.58615  -0.54260  -0.52270
 Alpha  occ. eigenvalues --   -0.49896  -0.48894  -0.47213  -0.46653  -0.45477
 Alpha  occ. eigenvalues --   -0.43865  -0.42959  -0.42242  -0.41383  -0.39736
 Alpha  occ. eigenvalues --   -0.37926  -0.36993  -0.35414  -0.34951  -0.33680
 Alpha  occ. eigenvalues --   -0.29588  -0.26982  -0.26286  -0.24721
 Alpha virt. eigenvalues --   -0.02457  -0.02235  -0.01372  -0.01129  -0.00508
 Alpha virt. eigenvalues --    0.00006   0.00783   0.01987   0.02306   0.03216
 Alpha virt. eigenvalues --    0.04302   0.05119   0.05302   0.05986   0.06903
 Alpha virt. eigenvalues --    0.07244   0.08300   0.08938   0.09279   0.09567
 Alpha virt. eigenvalues --    0.09790   0.10287   0.10827   0.11116   0.11689
 Alpha virt. eigenvalues --    0.11709   0.11893   0.12263   0.12858   0.13209
 Alpha virt. eigenvalues --    0.13355   0.14161   0.14589   0.15107   0.15268
 Alpha virt. eigenvalues --    0.15795   0.16201   0.16714   0.17481   0.17666
 Alpha virt. eigenvalues --    0.18017   0.18552   0.18924   0.19189   0.19835
 Alpha virt. eigenvalues --    0.20256   0.20620   0.21554   0.22279   0.22787
 Alpha virt. eigenvalues --    0.23223   0.23768   0.24258   0.24728   0.24962
 Alpha virt. eigenvalues --    0.25957   0.26160   0.26867   0.27448   0.28192
 Alpha virt. eigenvalues --    0.28225   0.28703   0.29116   0.29796   0.30022
 Alpha virt. eigenvalues --    0.30539   0.30764   0.31166   0.31922   0.33010
 Alpha virt. eigenvalues --    0.33631   0.34363   0.35181   0.35892   0.36185
 Alpha virt. eigenvalues --    0.36761   0.37584   0.38044   0.38513   0.38806
 Alpha virt. eigenvalues --    0.40381   0.44125   0.47409   0.48693   0.50577
 Alpha virt. eigenvalues --    0.52645   0.52925   0.54569   0.55343   0.55546
 Alpha virt. eigenvalues --    0.56304   0.56356   0.57276   0.57428   0.58000
 Alpha virt. eigenvalues --    0.59030   0.59161   0.60653   0.61683   0.62209
 Alpha virt. eigenvalues --    0.64841   0.67047   0.67644   0.69155   0.69502
 Alpha virt. eigenvalues --    0.70302   0.71104   0.71811   0.72354   0.73474
 Alpha virt. eigenvalues --    0.73962   0.74853   0.75443   0.76374   0.78192
 Alpha virt. eigenvalues --    0.78385   0.79098   0.82301   0.84083   0.85135
 Alpha virt. eigenvalues --    0.85323   0.86763   0.88038   0.88599   0.89999
 Alpha virt. eigenvalues --    0.91473   0.91629   0.93127   0.94446   0.94974
 Alpha virt. eigenvalues --    0.99022   1.01696   1.02571   1.03777   1.05756
 Alpha virt. eigenvalues --    1.06721   1.08241   1.10787   1.11960   1.14243
 Alpha virt. eigenvalues --    1.14674   1.16061   1.17075   1.20094   1.22105
 Alpha virt. eigenvalues --    1.24227   1.25116   1.27235   1.30386   1.31536
 Alpha virt. eigenvalues --    1.33680   1.35994   1.40820   1.46169   1.47999
 Alpha virt. eigenvalues --    1.48853   1.50333   1.51587   1.52330   1.54132
 Alpha virt. eigenvalues --    1.55757   1.56759   1.57198   1.58192   1.59409
 Alpha virt. eigenvalues --    1.60697   1.62361   1.62888   1.64331   1.65618
 Alpha virt. eigenvalues --    1.66859   1.67402   1.70066   1.71164   1.72168
 Alpha virt. eigenvalues --    1.73890   1.74381   1.76476   1.78179   1.79687
 Alpha virt. eigenvalues --    1.81486   1.83927   1.84756   1.86058   1.88190
 Alpha virt. eigenvalues --    1.89689   1.92224   1.92911   1.94119   1.95113
 Alpha virt. eigenvalues --    1.95310   1.95673   1.96512   1.98808   2.01875
 Alpha virt. eigenvalues --    2.05115   2.06508   2.08276   2.09149   2.09800
 Alpha virt. eigenvalues --    2.13558   2.20189   2.21424   2.24796   2.27237
 Alpha virt. eigenvalues --    2.32512   2.34361   2.37778   2.40253   2.43553
 Alpha virt. eigenvalues --    2.45476   2.46048   2.47883   2.54592   2.56478
 Alpha virt. eigenvalues --    2.57790   2.60291   2.62159   2.63614   2.64604
 Alpha virt. eigenvalues --    2.66265   2.67995   2.70432   2.71078   2.71770
 Alpha virt. eigenvalues --    2.72643   2.73744   2.74962   2.76015   2.78973
 Alpha virt. eigenvalues --    2.80718   2.81252   2.82573   2.85091   2.86432
 Alpha virt. eigenvalues --    2.87656   2.89640   2.90100   2.92221   2.93044
 Alpha virt. eigenvalues --    2.95753   2.96372   2.97819   3.00707   3.02649
 Alpha virt. eigenvalues --    3.05863   3.09052   3.10676   3.15528   3.17496
 Alpha virt. eigenvalues --    3.18100   3.19213   3.25985   3.31248   3.36442
 Alpha virt. eigenvalues --    3.38306   3.38587   3.49646   3.54711   3.57120
 Alpha virt. eigenvalues --    3.61781   3.62666   3.66726   3.70907   3.79994
 Alpha virt. eigenvalues --    3.84632   3.99803   4.03845   4.05610   4.10727
 Alpha virt. eigenvalues --    4.11308   4.15679   4.15823   4.21753   4.33651
 Alpha virt. eigenvalues --    4.73834   4.84313   4.85353   5.00942   5.08655
 Alpha virt. eigenvalues --    5.18358   5.41240   5.60254   5.85696  23.61899
 Alpha virt. eigenvalues --   23.79462  23.82071  23.91155  23.97028  23.98003
 Alpha virt. eigenvalues --   24.08360  24.09604  24.18983  35.60481  49.87942
 Alpha virt. eigenvalues --   50.01751
          Condensed to atoms (all electrons):
               1          2          3          4          5          6
     1  N    6.747223   0.372556  -0.278771  -0.033449   0.275817   0.011553
     2  H    0.372556   0.432817   0.017481   0.006273   0.007453  -0.029043
     3  C   -0.278771   0.017481  10.045170   0.606103  -1.528746  -1.854728
     4  H   -0.033449   0.006273   0.606103   0.577985   0.079152  -0.322465
     5  C    0.275817   0.007453  -1.528746   0.079152  10.446447   0.056314
     6  C    0.011553  -0.029043  -1.854728  -0.322465   0.056314   7.192247
     7  H   -0.011261  -0.004052  -0.086832  -0.022994   0.349209   0.023932
     8  H   -0.000466   0.003265   0.028537   0.023738   0.517452  -0.111455
     9  C   -0.145901   0.001024  -0.623002  -0.182521  -2.508895   0.448861
    10  O   -0.037121   0.003165  -0.047299   0.007268   0.004989   0.532721
    11  C   -0.107930   0.000786   0.141134   0.000269  -0.503614   0.182404
    12  C    0.101813  -0.006125   0.057622   0.024603  -0.709606  -0.164169
    13  H   -0.006034   0.000116   0.007654  -0.002454  -0.042817   0.001254
    14  C    0.003131  -0.002003   0.133848   0.016281   0.042852  -0.048218
    15  C    0.014135   0.000274  -0.044006   0.004883  -0.075579   0.033070
    16  H   -0.006631   0.000153   0.004457  -0.010115  -0.015263   0.011373
    17  H    0.000599  -0.000080   0.000663   0.001038   0.013638  -0.004146
    18  C   -0.003994   0.000696  -0.015794  -0.021536   0.006270   0.074114
    19  H    0.000059  -0.000047  -0.000862   0.001768   0.008180  -0.002612
    20  H   -0.000160   0.000024   0.000912  -0.000628  -0.007441   0.000957
    21  H    0.395965  -0.055219  -0.052597  -0.010985  -0.012965   0.021789
    22  O   -0.031895   0.001038  -0.002597   0.008497  -0.132000   0.176450
    23  H   -0.001690  -0.000088  -0.032007   0.003426   0.010925   0.041738
               7          8          9         10         11         12
     1  N   -0.011261  -0.000466  -0.145901  -0.037121  -0.107930   0.101813
     2  H   -0.004052   0.003265   0.001024   0.003165   0.000786  -0.006125
     3  C   -0.086832   0.028537  -0.623002  -0.047299   0.141134   0.057622
     4  H   -0.022994   0.023738  -0.182521   0.007268   0.000269   0.024603
     5  C    0.349209   0.517452  -2.508895   0.004989  -0.503614  -0.709606
     6  C    0.023932  -0.111455   0.448861   0.532721   0.182404  -0.164169
     7  H    0.578604  -0.043114   0.021121  -0.004014  -0.010438   0.042264
     8  H   -0.043114   0.542358  -0.214759   0.007101   0.063459  -0.018758
     9  C    0.021121  -0.214759  10.036156   0.036039  -0.600216  -0.067798
    10  O   -0.004014   0.007101   0.036039   7.971270  -0.076628   0.015620
    11  C   -0.010438   0.063459  -0.600216  -0.076628   9.689998  -3.351131
    12  C    0.042264  -0.018758  -0.067798   0.015620  -3.351131   9.646764
    13  H    0.005425  -0.007933   0.004525  -0.001536   0.436488  -0.013641
    14  C   -0.011954   0.036006  -0.904100  -0.007816   0.341239   0.454895
    15  C    0.010288  -0.016554  -0.501531  -0.001812   0.735384  -0.060090
    16  H   -0.004058   0.003492   0.010832   0.000290  -0.016158   0.405429
    17  H    0.000037   0.002552   0.002066  -0.000156  -0.080291   0.006492
    18  C   -0.004289  -0.018108   0.205025  -0.000330  -0.514646  -0.070193
    19  H    0.000515   0.000699   0.017803  -0.000030   0.028196  -0.094526
    20  H   -0.000021  -0.000705   0.044965   0.000024  -0.013176   0.003675
    21  H    0.006709   0.000220  -0.018449   0.002023  -0.002572   0.010339
    22  O   -0.008388   0.006953   0.004506  -0.155564   0.008163   0.027904
    23  H    0.000830  -0.001441  -0.022428  -0.002040   0.019396  -0.011375
              13         14         15         16         17         18
     1  N   -0.006034   0.003131   0.014135  -0.006631   0.000599  -0.003994
     2  H    0.000116  -0.002003   0.000274   0.000153  -0.000080   0.000696
     3  C    0.007654   0.133848  -0.044006   0.004457   0.000663  -0.015794
     4  H   -0.002454   0.016281   0.004883  -0.010115   0.001038  -0.021536
     5  C   -0.042817   0.042852  -0.075579  -0.015263   0.013638   0.006270
     6  C    0.001254  -0.048218   0.033070   0.011373  -0.004146   0.074114
     7  H    0.005425  -0.011954   0.010288  -0.004058   0.000037  -0.004289
     8  H   -0.007933   0.036006  -0.016554   0.003492   0.002552  -0.018108
     9  C    0.004525  -0.904100  -0.501531   0.010832   0.002066   0.205025
    10  O   -0.001536  -0.007816  -0.001812   0.000290  -0.000156  -0.000330
    11  C    0.436488   0.341239   0.735384  -0.016158  -0.080291  -0.514646
    12  C   -0.013641   0.454895  -0.060090   0.405429   0.006492  -0.070193
    13  H    0.528628  -0.095154   0.014387  -0.002544  -0.017542   0.017014
    14  C   -0.095154   5.831263  -0.023458  -0.000586   0.426814   0.243419
    15  C    0.014387  -0.023458   5.674326  -0.101237   0.012546   0.231635
    16  H   -0.002544  -0.000586  -0.101237   0.566144   0.000191   0.026321
    17  H   -0.017542   0.426814   0.012546   0.000191   0.542438  -0.066801
    18  C    0.017014   0.243419   0.231635   0.026321  -0.066801   5.809096
    19  H    0.000607   0.010777   0.424541  -0.018525   0.000166  -0.078876
    20  H    0.000861  -0.086323  -0.094654   0.000858  -0.017820   0.481775
    21  H   -0.000342   0.001101   0.001339  -0.000482   0.000037  -0.000344
    22  O   -0.002645   0.015469   0.007810   0.002553   0.000678  -0.000810
    23  H    0.000908   0.000814   0.003088  -0.000874  -0.000022  -0.001379
              19         20         21         22         23
     1  N    0.000059  -0.000160   0.395965  -0.031895  -0.001690
     2  H   -0.000047   0.000024  -0.055219   0.001038  -0.000088
     3  C   -0.000862   0.000912  -0.052597  -0.002597  -0.032007
     4  H    0.001768  -0.000628  -0.010985   0.008497   0.003426
     5  C    0.008180  -0.007441  -0.012965  -0.132000   0.010925
     6  C   -0.002612   0.000957   0.021789   0.176450   0.041738
     7  H    0.000515  -0.000021   0.006709  -0.008388   0.000830
     8  H    0.000699  -0.000705   0.000220   0.006953  -0.001441
     9  C    0.017803   0.044965  -0.018449   0.004506  -0.022428
    10  O   -0.000030   0.000024   0.002023  -0.155564  -0.002040
    11  C    0.028196  -0.013176  -0.002572   0.008163   0.019396
    12  C   -0.094526   0.003675   0.010339   0.027904  -0.011375
    13  H    0.000607   0.000861  -0.000342  -0.002645   0.000908
    14  C    0.010777  -0.086323   0.001101   0.015469   0.000814
    15  C    0.424541  -0.094654   0.001339   0.007810   0.003088
    16  H   -0.018525   0.000858  -0.000482   0.002553  -0.000874
    17  H    0.000166  -0.017820   0.000037   0.000678  -0.000022
    18  C   -0.078876   0.481775  -0.000344  -0.000810  -0.001379
    19  H    0.546372  -0.017613   0.000014  -0.000142   0.000178
    20  H   -0.017613   0.557268  -0.000016  -0.000426  -0.000136
    21  H    0.000014  -0.000016   0.482426  -0.000169   0.000029
    22  O   -0.000142  -0.000426  -0.000169   7.920779   0.248853
    23  H    0.000178  -0.000136   0.000029   0.248853   0.460418
 Mulliken charges:
               1
     1  N   -0.257550
     2  H    0.249536
     3  C   -0.476340
     4  H    0.245863
     5  C   -0.281773
     6  C   -0.271941
     7  H    0.172481
     8  H    0.197464
     9  C    0.956675
    10  O   -0.246162
    11  C   -0.370117
    12  C   -0.230009
    13  H    0.174776
    14  C   -0.378296
    15  C   -0.248786
    16  H    0.144379
    17  H    0.176903
    18  C   -0.298269
    19  H    0.173357
    20  H    0.147800
    21  H    0.232148
    22  O   -0.095017
    23  H    0.282878
 Sum of Mulliken charges =   0.00000
 Mulliken charges with hydrogens summed into heavy atoms:
               1
     1  N    0.224135
     3  C   -0.230476
     5  C    0.088172
     6  C   -0.271941
     9  C    0.956675
    10  O   -0.246162
    11  C   -0.195342
    12  C   -0.085629
    14  C   -0.201393
    15  C   -0.075430
    18  C   -0.150469
    22  O    0.187861
 Electronic spatial extent (au):  <R**2>=           2233.1348
 Charge=              0.0000 electrons
 Dipole moment (field-independent basis, Debye):
    X=              1.4412    Y=             -1.0655    Z=              0.1874  Tot=              1.8021
 Quadrupole moment (field-independent basis, Debye-Ang):
   XX=            -76.1030   YY=            -64.1129   ZZ=            -72.7449
   XY=              5.0464   XZ=              2.8518   YZ=              2.1183
 Traceless Quadrupole moment (field-independent basis, Debye-Ang):
   XX=             -5.1161   YY=              6.8740   ZZ=             -1.7580
   XY=              5.0464   XZ=              2.8518   YZ=              2.1183
 Octapole moment (field-independent basis, Debye-Ang**2):
  XXX=             20.6549  YYY=              9.0341  ZZZ=              0.5236  XYY=            -12.9987
  XXY=              1.8272  XXZ=              3.2547  XZZ=             -8.6104  YZZ=              4.3142
  YYZ=             13.0930  XYZ=            -20.4801
 Hexadecapole moment (field-independent basis, Debye-Ang**3):
 XXXX=          -2113.6247 YYYY=           -515.9719 ZZZZ=           -352.8609 XXXY=             33.9177
 XXXZ=             84.1213 YYYX=             10.3121 YYYZ=             29.9184 ZZZX=              8.8552
 ZZZY=              3.2092 XXYY=           -423.9591 XXZZ=           -405.5973 YYZZ=           -137.8831
 XXYZ=             20.5686 YYXZ=            -19.0742 ZZXY=             -7.4499
 N-N= 6.816769228643D+02 E-N=-2.657932750840D+03  KE= 5.526791379361D+02
 Calling FoFJK, ICntrl=      2127 FMM=F ISym2X=0 I1Cent= 0 IOpClX= 0 NMat=1 NMatS=1 NMatT=0.
 ***** Axes restored to original set *****
 -------------------------------------------------------------------
 Center     Atomic                   Forces (Hartrees/Bohr)
 Number     Number              X              Y              Z
 -------------------------------------------------------------------
      1        7          -0.000018943    0.000014051    0.000008742
      2        1          -0.000006688   -0.000000216   -0.000015003
      3        6           0.000005609    0.000039788    0.000052426
      4        1          -0.000004826   -0.000003401   -0.000004887
      5        6           0.000026344    0.000011527   -0.000014961
      6        6           0.000015844   -0.000078671   -0.000043874
      7        1          -0.000007435   -0.000003075    0.000004927
      8        1          -0.000009938    0.000001702   -0.000001053
      9        6          -0.000018394   -0.000018679    0.000000801
     10        8          -0.000010055    0.000020704   -0.000001420
     11        6           0.000001260    0.000013785   -0.000003434
     12        6          -0.000004273   -0.000003167    0.000000832
     13        1          -0.000001477   -0.000001283   -0.000002625
     14        6          -0.000002099    0.000002233   -0.000008731
     15        6           0.000007781   -0.000000279   -0.000003465
     16        1          -0.000001790   -0.000000280    0.000000572
     17        1           0.000001213   -0.000001807   -0.000004106
     18        6           0.000005144   -0.000004157    0.000000001
     19        1           0.000000570   -0.000002824   -0.000002746
     20        1           0.000001585   -0.000002291   -0.000004942
     21        1           0.000004419   -0.000014699    0.000003284
     22        8           0.000009395    0.000013551    0.000037009
     23        1           0.000006754    0.000017489    0.000002655
 -------------------------------------------------------------------
 Cartesian Forces:  Max     0.000078671 RMS     0.000016557

 GradGradGradGradGradGradGradGradGradGradGradGradGradGradGradGradGradGrad
 Berny optimization.
 FormGI is forming the generalized inverse of G from B-inverse, IUseBI=4.
 Internal  Forces:  Max     0.000046060 RMS     0.000008221
 Search for a local minimum.
 Step number   1 out of a maximum of  123
 All quantities printed in internal units (Hartrees-Bohrs-Radians)
 Mixed Optimization -- En-DIIS/RFO-DIIS
 Second derivative matrix not updated -- first step.
 ITU=  0
     Eigenvalues ---    0.00230   0.00452   0.00603   0.00862   0.00930
     Eigenvalues ---    0.01486   0.02101   0.02129   0.02137   0.02156
     Eigenvalues ---    0.02168   0.02172   0.02172   0.02176   0.02390
     Eigenvalues ---    0.03863   0.04149   0.04424   0.04902   0.05424
     Eigenvalues ---    0.06808   0.09535   0.13011   0.16000   0.16000
     Eigenvalues ---    0.16000   0.16000   0.16000   0.16000   0.16000
     Eigenvalues ---    0.16000   0.17432   0.18184   0.22000   0.22000
     Eigenvalues ---    0.22015   0.23470   0.24994   0.24999   0.25000
     Eigenvalues ---    0.27067   0.30012   0.31119   0.34220   0.34385
     Eigenvalues ---    0.34606   0.35289   0.35366   0.35460   0.35464
     Eigenvalues ---    0.35496   0.36626   0.42065   0.42081   0.44991
     Eigenvalues ---    0.45240   0.45867   0.46195   0.46637   0.46762
     Eigenvalues ---    0.53352   0.55621   1.01443
 RFO step:  Lambda=-4.09140410D-08 EMin= 2.30000000D-03
 Linear search not attempted -- first point.
 Iteration  1 RMS(Cart)=  0.00031901 RMS(Int)=  0.00000004
 Iteration  2 RMS(Cart)=  0.00000005 RMS(Int)=  0.00000000
 Variable       Old X    -DE/DX   Delta X   Delta X   Delta X     New X
                                 (Linear)    (Quad)   (Total)
    R1        1.91986   0.00002   0.00000   0.00004   0.00004   1.91990
    R2        2.76414   0.00002   0.00000   0.00006   0.00006   2.76420
    R3        1.91698   0.00002   0.00000   0.00004   0.00004   1.91702
    R4        2.06319  -0.00001   0.00000  -0.00002  -0.00002   2.06317
    R5        2.94224   0.00001   0.00000   0.00004   0.00004   2.94228
    R6        2.87939  -0.00004   0.00000  -0.00012  -0.00012   2.87927
    R7        2.06961   0.00000   0.00000   0.00001   0.00001   2.06962
    R8        2.06686   0.00000   0.00000   0.00001   0.00001   2.06687
    R9        2.85786  -0.00001   0.00000  -0.00004  -0.00004   2.85782
   R10        2.28066   0.00002   0.00000   0.00002   0.00002   2.28068
   R11        2.54584   0.00005   0.00000   0.00008   0.00008   2.54592
   R12        2.64448   0.00002   0.00000   0.00003   0.00003   2.64452
   R13        2.64593   0.00000   0.00000   0.00001   0.00001   2.64594
   R14        2.05086   0.00000   0.00000   0.00000   0.00000   2.05086
   R15        2.63476   0.00000   0.00000   0.00001   0.00001   2.63477
   R16        2.63190   0.00001   0.00000   0.00002   0.00002   2.63192
   R17        2.05209   0.00000   0.00000   0.00000   0.00000   2.05209
   R18        2.04934   0.00000   0.00000   0.00000   0.00000   2.04935
   R19        2.63289   0.00001   0.00000   0.00002   0.00002   2.63291
   R20        2.63510   0.00000   0.00000   0.00001   0.00001   2.63511
   R21        2.04928   0.00000   0.00000   0.00000   0.00000   2.04928
   R22        2.04876   0.00000   0.00000   0.00000   0.00000   2.04877
   R23        1.83327   0.00002   0.00000   0.00003   0.00003   1.83330
    A1        1.92529   0.00001   0.00000   0.00002   0.00002   1.92531
    A2        1.88961   0.00000   0.00000  -0.00006  -0.00006   1.88956
    A3        1.93440  -0.00001   0.00000  -0.00009  -0.00009   1.93430
    A4        1.89276   0.00000   0.00000   0.00002   0.00002   1.89278
    A5        1.99818  -0.00001   0.00000  -0.00010  -0.00010   1.99808
    A6        1.86112   0.00002   0.00000   0.00005   0.00005   1.86117
    A7        1.90508   0.00001   0.00000   0.00007   0.00007   1.90515
    A8        1.88803   0.00000   0.00000   0.00008   0.00008   1.88811
    A9        1.91549  -0.00001   0.00000  -0.00011  -0.00011   1.91538
   A10        1.86186   0.00000   0.00000  -0.00005  -0.00005   1.86182
   A11        1.88218   0.00000   0.00000  -0.00005  -0.00005   1.88212
   A12        2.00122   0.00000   0.00000   0.00000   0.00000   2.00122
   A13        1.87185   0.00000   0.00000   0.00001   0.00001   1.87186
   A14        1.91648   0.00000   0.00000   0.00005   0.00005   1.91653
   A15        1.92499   0.00000   0.00000   0.00003   0.00003   1.92502
   A16        2.16284   0.00001   0.00000   0.00005   0.00005   2.16289
   A17        1.97125   0.00001   0.00000   0.00002   0.00002   1.97128
   A18        2.14905  -0.00002   0.00000  -0.00007  -0.00007   2.14899
   A19        2.11078   0.00000   0.00000  -0.00001  -0.00001   2.11077
   A20        2.10598   0.00000   0.00000   0.00001   0.00001   2.10599
   A21        2.06623   0.00000   0.00000   0.00000   0.00000   2.06623
   A22        2.08473   0.00000   0.00000   0.00000   0.00000   2.08473
   A23        2.10911   0.00000   0.00000   0.00000   0.00000   2.10912
   A24        2.08934   0.00000   0.00000   0.00000   0.00000   2.08934
   A25        2.11083   0.00000   0.00000   0.00000   0.00000   2.11083
   A26        2.08677   0.00000   0.00000   0.00000   0.00000   2.08676
   A27        2.08557   0.00000   0.00000   0.00001   0.00001   2.08557
   A28        2.08982   0.00000   0.00000   0.00001   0.00001   2.08982
   A29        2.09746   0.00000   0.00000   0.00000   0.00000   2.09745
   A30        2.09590   0.00000   0.00000   0.00000   0.00000   2.09590
   A31        2.09618   0.00000   0.00000   0.00000   0.00000   2.09619
   A32        2.09136   0.00000   0.00000  -0.00001  -0.00001   2.09135
   A33        2.09564   0.00000   0.00000   0.00000   0.00000   2.09564
   A34        2.08654   0.00000   0.00000   0.00000   0.00000   2.08655
   A35        2.09869   0.00000   0.00000   0.00000   0.00000   2.09869
   A36        2.09794   0.00000   0.00000   0.00000   0.00000   2.09794
   A37        1.87465   0.00001   0.00000   0.00005   0.00005   1.87470
    D1        3.03569   0.00001   0.00000   0.00041   0.00041   3.03610
    D2       -1.11576   0.00001   0.00000   0.00045   0.00045  -1.11531
    D3        1.00611   0.00000   0.00000   0.00029   0.00029   1.00640
    D4       -1.15489   0.00000   0.00000   0.00029   0.00029  -1.15460
    D5        0.97684   0.00001   0.00000   0.00033   0.00033   0.97717
    D6        3.09872  -0.00001   0.00000   0.00017   0.00017   3.09888
    D7       -0.97375   0.00000   0.00000  -0.00043  -0.00043  -0.97418
    D8        1.03226   0.00000   0.00000  -0.00047  -0.00047   1.03179
    D9       -3.09933   0.00000   0.00000  -0.00047  -0.00047  -3.09979
   D10        1.15126   0.00000   0.00000  -0.00043  -0.00043   1.15083
   D11       -3.12592   0.00000   0.00000  -0.00046  -0.00046  -3.12638
   D12       -0.97432   0.00000   0.00000  -0.00046  -0.00046  -0.97478
   D13       -3.06554   0.00000   0.00000  -0.00035  -0.00035  -3.06589
   D14       -1.05953   0.00000   0.00000  -0.00039  -0.00039  -1.05992
   D15        1.09207   0.00000   0.00000  -0.00038  -0.00038   1.09168
   D16       -0.97926   0.00001   0.00000   0.00045   0.00045  -0.97881
   D17        2.17086   0.00001   0.00000   0.00014   0.00014   2.17100
   D18       -3.01200   0.00000   0.00000   0.00037   0.00037  -3.01164
   D19        0.13812   0.00000   0.00000   0.00006   0.00006   0.13818
   D20        1.19427   0.00000   0.00000   0.00030   0.00030   1.19457
   D21       -1.93879  -0.00001   0.00000  -0.00001  -0.00001  -1.93880
   D22       -1.72444   0.00000   0.00000   0.00004   0.00004  -1.72440
   D23        1.39570   0.00000   0.00000   0.00000   0.00000   1.39571
   D24        2.46322   0.00000   0.00000   0.00006   0.00006   2.46328
   D25       -0.69982   0.00000   0.00000   0.00002   0.00002  -0.69980
   D26        0.40403   0.00000   0.00000   0.00000   0.00000   0.40403
   D27       -2.75901   0.00000   0.00000  -0.00004  -0.00004  -2.75905
   D28        3.11685   0.00000   0.00000   0.00001   0.00001   3.11686
   D29       -0.01629   0.00000   0.00000  -0.00029  -0.00029  -0.01658
   D30       -0.02734   0.00000   0.00000  -0.00003  -0.00003  -0.02737
   D31        3.11697   0.00000   0.00000   0.00004   0.00004   3.11701
   D32        3.13523   0.00000   0.00000   0.00000   0.00000   3.13523
   D33       -0.00365   0.00000   0.00000   0.00007   0.00007  -0.00357
   D34       -3.11639   0.00000   0.00000  -0.00005  -0.00005  -3.11643
   D35        0.03204   0.00000   0.00000  -0.00003  -0.00003   0.03201
   D36        0.00429   0.00000   0.00000  -0.00008  -0.00008   0.00421
   D37       -3.13047   0.00000   0.00000  -0.00006  -0.00006  -3.13053
   D38        3.13672   0.00000   0.00000  -0.00004  -0.00004   3.13668
   D39        0.00041   0.00000   0.00000  -0.00003  -0.00003   0.00038
   D40       -0.00215   0.00000   0.00000   0.00003   0.00003  -0.00212
   D41       -3.13846   0.00000   0.00000   0.00004   0.00004  -3.13842
   D42       -0.00170   0.00000   0.00000   0.00005   0.00005  -0.00166
   D43       -3.13801   0.00000   0.00000   0.00002   0.00002  -3.13799
   D44        3.13307   0.00000   0.00000   0.00003   0.00003   3.13310
   D45       -0.00325   0.00000   0.00000   0.00000   0.00000  -0.00324
   D46        0.00226   0.00000   0.00000  -0.00001  -0.00001   0.00225
   D47        3.13867   0.00000   0.00000   0.00001   0.00001   3.13867
   D48       -3.13403   0.00000   0.00000   0.00000   0.00000  -3.13403
   D49        0.00238   0.00000   0.00000   0.00001   0.00001   0.00240
   D50       -0.00162   0.00000   0.00000   0.00000   0.00000  -0.00162
   D51       -3.13803   0.00000   0.00000  -0.00001  -0.00001  -3.13805
   D52        3.13468   0.00000   0.00000   0.00002   0.00002   3.13470
   D53       -0.00173   0.00000   0.00000   0.00001   0.00001  -0.00172
         Item               Value     Threshold  Converged?
 Maximum Force            0.000046     0.000450     YES
 RMS     Force            0.000008     0.000300     YES
 Maximum Displacement     0.001187     0.001800     YES
 RMS     Displacement     0.000319     0.001200     YES
 Predicted change in Energy=-2.045705D-08
 Optimization completed.
    -- Stationary point found.
                           ----------------------------
                           !   Optimized Parameters   !
                           ! (Angstroms and Degrees)  !
 --------------------------                            --------------------------
 ! Name  Definition              Value          Derivative Info.                !
 --------------------------------------------------------------------------------
 ! R1    R(1,2)                  1.0159         -DE/DX =    0.0                 !
 ! R2    R(1,3)                  1.4627         -DE/DX =    0.0                 !
 ! R3    R(1,21)                 1.0144         -DE/DX =    0.0                 !
 ! R4    R(3,4)                  1.0918         -DE/DX =    0.0                 !
 ! R5    R(3,5)                  1.557          -DE/DX =    0.0                 !
 ! R6    R(3,6)                  1.5237         -DE/DX =    0.0                 !
 ! R7    R(5,7)                  1.0952         -DE/DX =    0.0                 !
 ! R8    R(5,8)                  1.0937         -DE/DX =    0.0                 !
 ! R9    R(5,9)                  1.5123         -DE/DX =    0.0                 !
 ! R10   R(6,10)                 1.2069         -DE/DX =    0.0                 !
 ! R11   R(6,22)                 1.3472         -DE/DX =    0.0                 !
 ! R12   R(9,11)                 1.3994         -DE/DX =    0.0                 !
 ! R13   R(9,12)                 1.4002         -DE/DX =    0.0                 !
 ! R14   R(11,13)                1.0853         -DE/DX =    0.0                 !
 ! R15   R(11,14)                1.3943         -DE/DX =    0.0                 !
 ! R16   R(12,15)                1.3927         -DE/DX =    0.0                 !
 ! R17   R(12,16)                1.0859         -DE/DX =    0.0                 !
 ! R18   R(14,17)                1.0845         -DE/DX =    0.0                 !
 ! R19   R(14,18)                1.3933         -DE/DX =    0.0                 !
 ! R20   R(15,18)                1.3944         -DE/DX =    0.0                 !
 ! R21   R(15,19)                1.0844         -DE/DX =    0.0                 !
 ! R22   R(18,20)                1.0842         -DE/DX =    0.0                 !
 ! R23   R(22,23)                0.9701         -DE/DX =    0.0                 !
 ! A1    A(2,1,3)              110.3111         -DE/DX =    0.0                 !
 ! A2    A(2,1,21)             108.2669         -DE/DX =    0.0                 !
 ! A3    A(3,1,21)             110.8329         -DE/DX =    0.0                 !
 ! A4    A(1,3,4)              108.4472         -DE/DX =    0.0                 !
 ! A5    A(1,3,5)              114.4873         -DE/DX =    0.0                 !
 ! A6    A(1,3,6)              106.6346         -DE/DX =    0.0                 !
 ! A7    A(4,3,5)              109.1531         -DE/DX =    0.0                 !
 ! A8    A(4,3,6)              108.176          -DE/DX =    0.0                 !
 ! A9    A(5,3,6)              109.7497         -DE/DX =    0.0                 !
 ! A10   A(3,5,7)              106.6768         -DE/DX =    0.0                 !
 ! A11   A(3,5,8)              107.8407         -DE/DX =    0.0                 !
 ! A12   A(3,5,9)              114.6613         -DE/DX =    0.0                 !
 ! A13   A(7,5,8)              107.2492         -DE/DX =    0.0                 !
 ! A14   A(7,5,9)              109.8061         -DE/DX =    0.0                 !
 ! A15   A(8,5,9)              110.2938         -DE/DX =    0.0                 !
 ! A16   A(3,6,10)             123.9219         -DE/DX =    0.0                 !
 ! A17   A(3,6,22)             112.9445         -DE/DX =    0.0                 !
 ! A18   A(10,6,22)            123.1317         -DE/DX =    0.0                 !
 ! A19   A(5,9,11)             120.9385         -DE/DX =    0.0                 !
 ! A20   A(5,9,12)             120.6639         -DE/DX =    0.0                 !
 ! A21   A(11,9,12)            118.3865         -DE/DX =    0.0                 !
 ! A22   A(9,11,13)            119.4463         -DE/DX =    0.0                 !
 ! A23   A(9,11,14)            120.8434         -DE/DX =    0.0                 !
 ! A24   A(13,11,14)           119.7101         -DE/DX =    0.0                 !
 ! A25   A(9,12,15)            120.9419         -DE/DX =    0.0                 !
 ! A26   A(9,12,16)            119.5628         -DE/DX =    0.0                 !
 ! A27   A(15,12,16)           119.4942         -DE/DX =    0.0                 !
 ! A28   A(11,14,17)           119.7378         -DE/DX =    0.0                 !
 ! A29   A(11,14,18)           120.1753         -DE/DX =    0.0                 !
 ! A30   A(17,14,18)           120.0862         -DE/DX =    0.0                 !
 ! A31   A(12,15,18)           120.1023         -DE/DX =    0.0                 !
 ! A32   A(12,15,19)           119.8259         -DE/DX =    0.0                 !
 ! A33   A(18,15,19)           120.0712         -DE/DX =    0.0                 !
 ! A34   A(14,18,15)           119.5502         -DE/DX =    0.0                 !
 ! A35   A(14,18,20)           120.2463         -DE/DX =    0.0                 !
 ! A36   A(15,18,20)           120.2028         -DE/DX =    0.0                 !
 ! A37   A(6,22,23)            107.4098         -DE/DX =    0.0                 !
 ! D1    D(2,1,3,4)            173.9324         -DE/DX =    0.0                 !
 ! D2    D(2,1,3,5)            -63.9284         -DE/DX =    0.0                 !
 ! D3    D(2,1,3,6)             57.646          -DE/DX =    0.0                 !
 ! D4    D(21,1,3,4)           -66.1703         -DE/DX =    0.0                 !
 ! D5    D(21,1,3,5)            55.9689         -DE/DX =    0.0                 !
 ! D6    D(21,1,3,6)           177.5434         -DE/DX =    0.0                 !
 ! D7    D(1,3,5,7)            -55.7916         -DE/DX =    0.0                 !
 ! D8    D(1,3,5,8)             59.1442         -DE/DX =    0.0                 !
 ! D9    D(1,3,5,9)           -177.5783         -DE/DX =    0.0                 !
 ! D10   D(4,3,5,7)             65.9622         -DE/DX =    0.0                 !
 ! D11   D(4,3,5,8)           -179.102          -DE/DX =    0.0                 !
 ! D12   D(4,3,5,9)            -55.8245         -DE/DX =    0.0                 !
 ! D13   D(6,3,5,7)           -175.6424         -DE/DX =    0.0                 !
 ! D14   D(6,3,5,8)            -60.7066         -DE/DX =    0.0                 !
 ! D15   D(6,3,5,9)             62.5708         -DE/DX =    0.0                 !
 ! D16   D(1,3,6,10)           -56.1077         -DE/DX =    0.0                 !
 ! D17   D(1,3,6,22)           124.3809         -DE/DX =    0.0                 !
 ! D18   D(4,3,6,10)          -172.575          -DE/DX =    0.0                 !
 ! D19   D(4,3,6,22)             7.9136         -DE/DX =    0.0                 !
 ! D20   D(5,3,6,10)            68.4267         -DE/DX =    0.0                 !
 ! D21   D(5,3,6,22)          -111.0847         -DE/DX =    0.0                 !
 ! D22   D(3,5,9,11)           -98.803          -DE/DX =    0.0                 !
 ! D23   D(3,5,9,12)            79.9679         -DE/DX =    0.0                 !
 ! D24   D(7,5,9,11)           141.1321         -DE/DX =    0.0                 !
 ! D25   D(7,5,9,12)           -40.0969         -DE/DX =    0.0                 !
 ! D26   D(8,5,9,11)            23.1492         -DE/DX =    0.0                 !
 ! D27   D(8,5,9,12)          -158.0798         -DE/DX =    0.0                 !
 ! D28   D(3,6,22,23)          178.5826         -DE/DX =    0.0                 !
 ! D29   D(10,6,22,23)          -0.9332         -DE/DX =    0.0                 !
 ! D30   D(5,9,11,13)           -1.5663         -DE/DX =    0.0                 !
 ! D31   D(5,9,11,14)          178.5893         -DE/DX =    0.0                 !
 ! D32   D(12,9,11,13)         179.6353         -DE/DX =    0.0                 !
 ! D33   D(12,9,11,14)          -0.209          -DE/DX =    0.0                 !
 ! D34   D(5,9,12,15)         -178.5558         -DE/DX =    0.0                 !
 ! D35   D(5,9,12,16)            1.8356         -DE/DX =    0.0                 !
 ! D36   D(11,9,12,15)           0.246          -DE/DX =    0.0                 !
 ! D37   D(11,9,12,16)        -179.3627         -DE/DX =    0.0                 !
 ! D38   D(9,11,14,17)         179.7207         -DE/DX =    0.0                 !
 ! D39   D(9,11,14,18)           0.0237         -DE/DX =    0.0                 !
 ! D40   D(13,11,14,17)         -0.1233         -DE/DX =    0.0                 !
 ! D41   D(13,11,14,18)       -179.8203         -DE/DX =    0.0                 !
 ! D42   D(9,12,15,18)          -0.0974         -DE/DX =    0.0                 !
 ! D43   D(9,12,15,19)        -179.7949         -DE/DX =    0.0                 !
 ! D44   D(16,12,15,18)        179.5115         -DE/DX =    0.0                 !
 ! D45   D(16,12,15,19)         -0.186          -DE/DX =    0.0                 !
 ! D46   D(11,14,18,15)          0.1294         -DE/DX =    0.0                 !
 ! D47   D(11,14,18,20)        179.8324         -DE/DX =    0.0                 !
 ! D48   D(17,14,18,15)       -179.5666         -DE/DX =    0.0                 !
 ! D49   D(17,14,18,20)          0.1365         -DE/DX =    0.0                 !
 ! D50   D(12,15,18,14)         -0.0929         -DE/DX =    0.0                 !
 ! D51   D(12,15,18,20)       -179.7961         -DE/DX =    0.0                 !
 ! D52   D(19,15,18,14)        179.6038         -DE/DX =    0.0                 !
 ! D53   D(19,15,18,20)         -0.0994         -DE/DX =    0.0                 !
 --------------------------------------------------------------------------------
 GradGradGradGradGradGradGradGradGradGradGradGradGradGradGradGradGradGrad

                          Input orientation:                          
 ---------------------------------------------------------------------
 Center     Atomic      Atomic             Coordinates (Angstroms)
 Number     Number       Type             X           Y           Z
 ---------------------------------------------------------------------
      1          7           0       -3.028003   -1.252341   -0.071738
      2          1           0       -3.379105   -0.852449   -0.937162
      3          6           0       -1.703065   -0.714105    0.235489
      4          1           0       -1.402143   -1.077909    1.219920
      5          6           0       -0.601609   -1.079106   -0.802637
      6          6           0       -1.854863    0.799973    0.314293
      7          1           0       -0.589327   -2.171711   -0.876814
      8          1           0       -0.916589   -0.691498   -1.775675
      9          6           0        0.781610   -0.573225   -0.459293
     10          8           0       -2.301957    1.479353   -0.577391
     11          6           0        1.283865    0.597444   -1.038600
     12          6           0        1.581135   -1.253462    0.467264
     13          1           0        0.681072    1.135179   -1.763364
     14          6           0        2.547810    1.077887   -0.698648
     15          6           0        2.843910   -0.776350    0.810032
     16          1           0        1.214519   -2.169548    0.920692
     17          1           0        2.921206    1.984501   -1.161999
     18          6           0        3.331398    0.393211    0.227849
     19          1           0        3.449286   -1.319480    1.527331
     20          1           0        4.315496    0.764288    0.491009
     21          1           0       -2.991912   -2.260440   -0.178931
     22          8           0       -1.426733    1.310487    1.485203
     23          1           0       -1.538110    2.273144    1.440177
 ---------------------------------------------------------------------
                    Distance matrix (angstroms):
                    1          2          3          4          5
     1  N    0.000000
     2  H    1.015946   0.000000
     3  C    1.462719   2.050209   0.000000
     4  H    2.083801   2.934657   1.091793   0.000000
     5  C    2.540002   2.789973   1.556964   2.175222   0.000000
     6  C    2.395260   2.572926   1.523708   2.133438   2.519746
     7  H    2.727733   3.086576   2.145285   2.500673   1.095189
     8  H    2.770563   2.606337   2.159592   3.059193   1.093735
     9  C    3.889030   4.197365   2.583831   2.800578   1.512315
    10  O    2.871408   2.593643   2.414685   3.252627   3.080200
    11  C    4.790483   4.884236   3.502172   3.888747   2.534070
    12  C    4.640547   5.170802   3.336255   3.081761   2.531288
    13  H    4.724308   4.595466   3.619306   4.258817   2.733373
    14  C    6.075580   6.237900   4.706781   4.891880   3.818675
    15  C    5.956799   6.464085   4.583553   4.276437   3.816277
    16  H    4.452547   5.127158   3.331684   2.850988   2.730797
    17  H    6.859949   6.913230   5.533473   5.808893   4.682420
    18  C    6.575681   6.923855   5.154806   5.055176   4.324137
    19  H    6.672091   7.274528   5.346219   4.867157   4.679346
    20  H    7.636129   7.991270   6.202743   6.051149   5.408285
    21  H    1.014424   1.645379   2.055243   2.425393   2.738267
    22  O    3.399444   3.789181   2.395228   2.403209   3.409574
    23  H    4.115181   4.337088   3.225235   3.361035   4.140632
                    6          7          8          9         10
     6  C    0.000000
     7  H    3.442561   0.000000
     8  H    2.733644   1.762408   0.000000
     9  C    3.071661   2.146847   2.151913   0.000000
    10  O    1.206876   4.043887   2.840374   3.706131   0.000000
    11  C    3.423879   3.347124   2.654552   1.399400   3.721370
    12  C    4.005756   2.713049   3.403705   1.400168   4.861891
    13  H    3.295449   3.651768   2.426813   2.151593   3.228536
    14  C    4.526236   4.520316   4.036430   2.429593   4.867866
    15  C    4.980866   4.071806   4.564475   2.430129   5.787321
    16  H    4.313570   2.546546   3.741210   2.154070   5.284348
    17  H    5.137449   5.447868   4.718711   3.407877   5.279997
    18  C    5.202906   4.813646   4.820383   2.812042   5.793341
    19  H    5.839310   4.776673   5.510452   3.408822   6.733507
    20  H    6.172993   5.877782   5.884886   3.896199   6.741178
    21  H    3.301860   2.503463   3.052562   4.143038   3.823724
    22  O    1.347201   4.290230   3.860248   3.493739   2.246959
    23  H    1.881005   5.101507   4.417815   4.134115   2.298727
                   11         12         13         14         15
    11  C    0.000000
    12  C    2.404547   0.000000
    13  H    1.085266   3.389900   0.000000
    14  C    1.394257   2.780108   2.149794   0.000000
    15  C    2.781814   1.392741   3.867064   2.408731   0.000000
    16  H    3.391147   1.085918   4.290682   3.865975   2.146663
    17  H    2.149428   3.864543   2.470058   1.084466   3.393697
    18  C    2.416195   2.415010   3.397010   1.393265   1.394437
    19  H    3.866219   2.148974   4.951468   3.393378   1.084430
    20  H    3.399754   3.398325   4.292878   2.153681   2.154276
    21  H    5.214287   4.726979   5.247044   6.488687   6.102245
    22  O    3.771650   4.081336   3.876436   4.540958   4.800952
    23  H    4.112888   4.807619   4.059853   4.764237   5.375742
                   16         17         18         19         20
    16  H    0.000000
    17  H    4.950405   0.000000
    18  C    3.395430   2.152240   0.000000
    19  H    2.466740   4.292744   2.153105   0.000000
    20  H    4.290464   2.483022   1.084159   2.483219   0.000000
    21  H    4.348735   7.345128   6.869613   6.729470   7.937003
    22  O    4.405170   5.134836   5.006211   5.540222   5.853200
    23  H    5.252080   5.171087   5.358731   6.147248   6.119010
                   21         22         23
    21  H    0.000000
    22  O    4.239180   0.000000
    23  H    5.028761   0.970124   0.000000
 Stoichiometry    C9H11NO2
 Framework group  C1[X(C9H11NO2)]
 Deg. of freedom    63
 Full point group                 C1      NOp   1
 Largest Abelian subgroup         C1      NOp   1
 Largest concise Abelian subgroup C1      NOp   1
                         Standard orientation:                         
 ---------------------------------------------------------------------
 Center     Atomic      Atomic             Coordinates (Angstroms)
 Number     Number       Type             X           Y           Z
 ---------------------------------------------------------------------
      1          7           0       -3.028003   -1.252341   -0.071738
      2          1           0       -3.379105   -0.852448   -0.937162
      3          6           0       -1.703065   -0.714105    0.235489
      4          1           0       -1.402143   -1.077909    1.219920
      5          6           0       -0.601609   -1.079106   -0.802637
      6          6           0       -1.854863    0.799973    0.314293
      7          1           0       -0.589327   -2.171711   -0.876814
      8          1           0       -0.916589   -0.691498   -1.775675
      9          6           0        0.781610   -0.573225   -0.459293
     10          8           0       -2.301957    1.479353   -0.577391
     11          6           0        1.283865    0.597444   -1.038600
     12          6           0        1.581135   -1.253462    0.467264
     13          1           0        0.681072    1.135179   -1.763364
     14          6           0        2.547810    1.077887   -0.698648
     15          6           0        2.843910   -0.776350    0.810032
     16          1           0        1.214519   -2.169548    0.920692
     17          1           0        2.921206    1.984501   -1.161999
     18          6           0        3.331398    0.393211    0.227849
     19          1           0        3.449286   -1.319480    1.527331
     20          1           0        4.315496    0.764288    0.491009
     21          1           0       -2.991912   -2.260440   -0.178931
     22          8           0       -1.426733    1.310487    1.485203
     23          1           0       -1.538110    2.273144    1.440177
 ---------------------------------------------------------------------
 Rotational constants (GHZ):      1.7375271      0.5889405      0.5314752
 1\1\GINC-KALI\FOpt\RB3LYP\6-311++G(d,p)\C9H11N1O2\ROOT\29-Mar-2016\0\\
 # opt b3lyp/6-311++g(d,p)\\Phe-S-opt-6-311++g(d,p)\\0,1\N,-3.02800305,
 -1.25234148,-0.07173767\H,-3.37910455,-0.8524485,-0.93716185\C,-1.7030
 6511,-0.71410504,0.23548883\H,-1.40214266,-1.07790925,1.21991952\C,-0.
 60160914,-1.07910647,-0.80263733\C,-1.85486323,0.79997322,0.31429279\H
 ,-0.5893271,-2.17171105,-0.8768144\H,-0.9165891,-0.69149759,-1.7756750
 1\C,0.78161028,-0.57322521,-0.45929349\O,-2.30195663,1.47935332,-0.577
 39071\C,1.28386454,0.59744354,-1.03859981\C,1.5811347,-1.25346236,0.46
 726418\H,0.68107172,1.13517927,-1.76336395\C,2.54780997,1.07788714,-0.
 69864817\C,2.84391033,-0.77635007,0.81003198\H,1.21451903,-2.16954807,
 0.92069248\H,2.92120595,1.98450065,-1.16199904\C,3.33139813,0.39321064
 ,0.22784851\H,3.44928577,-1.31948015,1.52733132\H,4.31549642,0.7642879
 5,0.49100851\H,-2.99191204,-2.26043991,-0.17893148\O,-1.42673271,1.310
 48678,1.48520264\H,-1.53811029,2.27314386,1.44017722\\Version=ES64L-G0
 9RevD.01\State=1-A\HF=-554.9587952\RMSD=2.629e-09\RMSF=1.656e-05\Dipol
 e=0.5670093,-0.4192001,0.0737417\Quadrupole=-3.8036714,5.1106831,-1.30
 70117,3.75187,2.1202247,1.5749055\PG=C01 [X(C9H11N1O2)]\\@


 CONFIDENCE: THAT QUIET ASSURED FEELING YOU HAVE
 JUST BEFORE YOU FALL FLAT ON YOUR FACE.
 Job cpu time:       0 days  0 hours 15 minutes  5.3 seconds.
 File lengths (MBytes):  RWF=     63 Int=      0 D2E=      0 Chk=      8 Scr=      1
 Normal termination of Gaussian 09 at Tue Mar 29 11:32:50 2016.
