 Entering Gaussian System, Link 0=g09
 Input=Ala-S-opt-freq-tsa3-6-31g.com
 Output=Ala-S-opt-freq-tsa3-6-31g.log
 Initial command:
 /usr/local/gau/g09/l1.exe "/tmp/Gau-3789.inp" -scrdir="/tmp/"
 Entering Link 1 = /usr/local/gau/g09/l1.exe PID=      3791.
  
 Copyright (c) 1988,1990,1992,1993,1995,1998,2003,2009,2013,
            Gaussian, Inc.  All Rights Reserved.
  
 This is part of the Gaussian(R) 09 program.  It is based on
 the Gaussian(R) 03 system (copyright 2003, Gaussian, Inc.),
 the Gaussian(R) 98 system (copyright 1998, Gaussian, Inc.),
 the Gaussian(R) 94 system (copyright 1995, Gaussian, Inc.),
 the Gaussian 92(TM) system (copyright 1992, Gaussian, Inc.),
 the Gaussian 90(TM) system (copyright 1990, Gaussian, Inc.),
 the Gaussian 88(TM) system (copyright 1988, Gaussian, Inc.),
 the Gaussian 86(TM) system (copyright 1986, Carnegie Mellon
 University), and the Gaussian 82(TM) system (copyright 1983,
 Carnegie Mellon University). Gaussian is a federally registered
 trademark of Gaussian, Inc.
  
 This software contains proprietary and confidential information,
 including trade secrets, belonging to Gaussian, Inc.
  
 This software is provided under written license and may be
 used, copied, transmitted, or stored only in accord with that
 written license.
  
 The following legend is applicable only to US Government
 contracts under FAR:
  
                    RESTRICTED RIGHTS LEGEND
  
 Use, reproduction and disclosure by the US Government is
 subject to restrictions as set forth in subparagraphs (a)
 and (c) of the Commercial Computer Software - Restricted
 Rights clause in FAR 52.227-19.
  
 Gaussian, Inc.
 340 Quinnipiac St., Bldg. 40, Wallingford CT 06492
  
  
 ---------------------------------------------------------------
 Warning -- This program may not be used in any manner that
 competes with the business of Gaussian, Inc. or will provide
 assistance to any competitor of Gaussian, Inc.  The licensee
 of this program is prohibited from giving any competitor of
 Gaussian, Inc. access to this program.  By using this program,
 the user acknowledges that Gaussian, Inc. is engaged in the
 business of creating and licensing software in the field of
 computational chemistry and represents and warrants to the
 licensee that it is not a competitor of Gaussian, Inc. and that
 it will not use this program in any manner prohibited above.
 ---------------------------------------------------------------
  

 Cite this work as:
 Gaussian 09, Revision D.01,
 M. J. Frisch, G. W. Trucks, H. B. Schlegel, G. E. Scuseria, 
 M. A. Robb, J. R. Cheeseman, G. Scalmani, V. Barone, B. Mennucci, 
 G. A. Petersson, H. Nakatsuji, M. Caricato, X. Li, H. P. Hratchian, 
 A. F. Izmaylov, J. Bloino, G. Zheng, J. L. Sonnenberg, M. Hada, 
 M. Ehara, K. Toyota, R. Fukuda, J. Hasegawa, M. Ishida, T. Nakajima, 
 Y. Honda, O. Kitao, H. Nakai, T. Vreven, J. A. Montgomery, Jr., 
 J. E. Peralta, F. Ogliaro, M. Bearpark, J. J. Heyd, E. Brothers, 
 K. N. Kudin, V. N. Staroverov, T. Keith, R. Kobayashi, J. Normand, 
 K. Raghavachari, A. Rendell, J. C. Burant, S. S. Iyengar, J. Tomasi, 
 M. Cossi, N. Rega, J. M. Millam, M. Klene, J. E. Knox, J. B. Cross, 
 V. Bakken, C. Adamo, J. Jaramillo, R. Gomperts, R. E. Stratmann, 
 O. Yazyev, A. J. Austin, R. Cammi, C. Pomelli, J. W. Ochterski, 
 R. L. Martin, K. Morokuma, V. G. Zakrzewski, G. A. Voth, 
 P. Salvador, J. J. Dannenberg, S. Dapprich, A. D. Daniels, 
 O. Farkas, J. B. Foresman, J. V. Ortiz, J. Cioslowski, 
 and D. J. Fox, Gaussian, Inc., Wallingford CT, 2013.
 
 ******************************************
 Gaussian 09:  ES64L-G09RevD.01 24-Apr-2013
                14-Apr-2016 
 ******************************************
 %chk=Ala-S-opt-freq-tsa3-6-31g.chk
 ------------------------------------------------
 #p opt=(calcfc,ts) freq rb3lyp/6-31g iop(1/11=1)
 ------------------------------------------------
 1/5=1,10=4,11=1,14=-1,18=20,26=3,38=1/1,3;
 2/9=110,12=2,17=6,18=5,40=1/2;
 3/5=1,6=6,11=2,16=1,25=1,30=1,71=2,74=-5,116=1,140=1/1,2,3;
 4//1;
 5/5=2,38=5/2;
 8/6=4,10=90,11=11/1;
 11/6=1,8=1,9=11,15=111,16=1/1,2,10;
 10/6=1,13=1/2;
 6/7=2,8=2,9=2,10=2,28=1/1;
 7/10=1,18=20,25=1/1,2,3,16;
 1/5=1,10=4,11=1,14=-1,18=20,26=3/3(2);
 2/9=110/2;
 99//99;
 2/9=110/2;
 3/5=1,6=6,11=2,16=1,25=1,30=1,71=1,74=-5,116=1/1,2,3;
 4/5=5,16=3,69=1/1;
 5/5=2,38=5/2;
 7//1,2,3,16;
 1/5=1,11=1,14=-1,18=20,26=3/3(-5);
 2/9=110/2;
 6/7=2,8=2,9=2,10=2,19=2,28=1/1;
 99/9=1/99;
 Leave Link    1 at Thu Apr 14 11:28:30 2016, MaxMem=           0 cpu:         0.0
 (Enter /usr/local/gau/g09/l101.exe)
 -------------------------
 Ala-S-opt-freq-tsa3-6-31g
 -------------------------
 Symbolic Z-matrix:
 Charge =  0 Multiplicity = 1
 N                     1.10319   1.31327   0.0413 
 H                     2.10042   1.3892   -0.04116 
 C                     0.48525   0.06485   0.01607 
 H                    -0.18267  -1.12434   0.13564 
 C                     1.39328  -1.13323   0.00839 
 C                    -0.85579  -0.04165   0.00959 
 H                     2.03879  -1.13614   0.89704 
 H                     0.81201  -2.05574   0.00541 
 H                     2.0485   -1.12618  -0.87414 
 O                    -1.66507   1.10956  -0.08171 
 H                     0.54084   2.14106  -0.05542 
 O                    -1.54604  -1.25718   0.1137 
 H                    -2.2781    1.15771   0.68323 
 
 NAtoms=     13 NQM=       13 NQMF=       0 NMMI=      0 NMMIF=      0
                NMic=       0 NMicF=      0.
                    Isotopes and Nuclear Properties:
 (Nuclear quadrupole moments (NQMom) in fm**2, nuclear magnetic moments (NMagM)
  in nuclear magnetons)

  Atom         1           2           3           4           5           6           7           8           9          10
 IAtWgt=          14           1          12           1          12          12           1           1           1          16
 AtmWgt=  14.0030740   1.0078250  12.0000000   1.0078250  12.0000000  12.0000000   1.0078250   1.0078250   1.0078250  15.9949146
 NucSpn=           2           1           0           1           0           0           1           1           1           0
 AtZEff=   0.0000000   0.0000000   0.0000000   0.0000000   0.0000000   0.0000000   0.0000000   0.0000000   0.0000000   0.0000000
 NQMom=    2.0440000   0.0000000   0.0000000   0.0000000   0.0000000   0.0000000   0.0000000   0.0000000   0.0000000   0.0000000
 NMagM=    0.4037610   2.7928460   0.0000000   2.7928460   0.0000000   0.0000000   2.7928460   2.7928460   2.7928460   0.0000000
 AtZNuc=   7.0000000   1.0000000   6.0000000   1.0000000   6.0000000   6.0000000   1.0000000   1.0000000   1.0000000   8.0000000

  Atom        11          12          13
 IAtWgt=           1          16           1
 AtmWgt=   1.0078250  15.9949146   1.0078250
 NucSpn=           1           0           1
 AtZEff=   0.0000000   0.0000000   0.0000000
 NQMom=    0.0000000   0.0000000   0.0000000
 NMagM=    2.7928460   0.0000000   2.7928460
 AtZNuc=   1.0000000   8.0000000   1.0000000
 Leave Link  101 at Thu Apr 14 11:28:31 2016, MaxMem=    33554432 cpu:         0.3
 (Enter /usr/local/gau/g09/l103.exe)

 GradGradGradGradGradGradGradGradGradGradGradGradGradGradGradGradGradGrad
 Berny optimization.
 Initialization pass.
                           ----------------------------
                           !    Initial Parameters    !
                           ! (Angstroms and Degrees)  !
 --------------------------                            --------------------------
 ! Name  Definition              Value          Derivative Info.                !
 --------------------------------------------------------------------------------
 ! R1    R(1,2)                  1.0035         calculate D2E/DX2 analytically  !
 ! R2    R(1,3)                  1.3932         calculate D2E/DX2 analytically  !
 ! R3    R(1,11)                 1.0054         calculate D2E/DX2 analytically  !
 ! R4    R(3,5)                  1.5033         calculate D2E/DX2 analytically  !
 ! R5    R(3,6)                  1.3453         calculate D2E/DX2 analytically  !
 ! R6    R(4,6)                  1.2811         calculate D2E/DX2 analytically  !
 ! R7    R(5,7)                  1.0984         calculate D2E/DX2 analytically  !
 ! R8    R(5,8)                  1.0904         calculate D2E/DX2 analytically  !
 ! R9    R(5,9)                  1.0992         calculate D2E/DX2 analytically  !
 ! R10   R(6,10)                 1.4102         calculate D2E/DX2 analytically  !
 ! R11   R(6,12)                 1.4017         calculate D2E/DX2 analytically  !
 ! R12   R(10,13)                0.9815         calculate D2E/DX2 analytically  !
 ! A1    A(2,1,3)              120.4689         calculate D2E/DX2 analytically  !
 ! A2    A(2,1,11)             119.0538         calculate D2E/DX2 analytically  !
 ! A3    A(3,1,11)             119.2059         calculate D2E/DX2 analytically  !
 ! A4    A(1,3,5)              116.508          calculate D2E/DX2 analytically  !
 ! A5    A(1,3,6)              120.8748         calculate D2E/DX2 analytically  !
 ! A6    A(5,3,6)              122.6153         calculate D2E/DX2 analytically  !
 ! A7    A(3,5,7)              110.6686         calculate D2E/DX2 analytically  !
 ! A8    A(3,5,8)              110.6273         calculate D2E/DX2 analytically  !
 ! A9    A(3,5,9)              111.0413         calculate D2E/DX2 analytically  !
 ! A10   A(7,5,8)              108.2564         calculate D2E/DX2 analytically  !
 ! A11   A(7,5,9)              107.4144         calculate D2E/DX2 analytically  !
 ! A12   A(8,5,9)              108.7238         calculate D2E/DX2 analytically  !
 ! A13   A(3,6,4)               62.7844         calculate D2E/DX2 analytically  !
 ! A14   A(3,6,10)             120.5154         calculate D2E/DX2 analytically  !
 ! A15   A(3,6,12)             123.9986         calculate D2E/DX2 analytically  !
 ! A16   A(4,6,12)              61.2199         calculate D2E/DX2 analytically  !
 ! A17   A(10,6,12)            115.4764         calculate D2E/DX2 analytically  !
 ! A18   A(6,10,13)            110.368          calculate D2E/DX2 analytically  !
 ! A19   L(4,6,10,3,-1)        183.2999         calculate D2E/DX2 analytically  !
 ! A20   L(4,6,10,3,-2)        182.0624         calculate D2E/DX2 analytically  !
 ! D1    D(2,1,3,5)              6.2762         calculate D2E/DX2 analytically  !
 ! D2    D(2,1,3,6)           -174.2135         calculate D2E/DX2 analytically  !
 ! D3    D(11,1,3,5)           173.2777         calculate D2E/DX2 analytically  !
 ! D4    D(11,1,3,6)            -7.2119         calculate D2E/DX2 analytically  !
 ! D5    D(1,3,5,7)             59.0596         calculate D2E/DX2 analytically  !
 ! D6    D(1,3,5,8)            179.0434         calculate D2E/DX2 analytically  !
 ! D7    D(1,3,5,9)            -60.1392         calculate D2E/DX2 analytically  !
 ! D8    D(6,3,5,7)           -120.4415         calculate D2E/DX2 analytically  !
 ! D9    D(6,3,5,8)             -0.4577         calculate D2E/DX2 analytically  !
 ! D10   D(6,3,5,9)            120.3597         calculate D2E/DX2 analytically  !
 ! D11   D(1,3,6,4)           -172.7462         calculate D2E/DX2 analytically  !
 ! D12   D(1,3,6,10)             5.1914         calculate D2E/DX2 analytically  !
 ! D13   D(1,3,6,12)          -173.6291         calculate D2E/DX2 analytically  !
 ! D14   D(5,3,6,4)              6.7336         calculate D2E/DX2 analytically  !
 ! D15   D(5,3,6,10)          -175.3288         calculate D2E/DX2 analytically  !
 ! D16   D(5,3,6,12)             5.8507         calculate D2E/DX2 analytically  !
 ! D17   D(3,6,10,13)         -122.8659         calculate D2E/DX2 analytically  !
 ! D18   D(12,6,10,13)          56.051          calculate D2E/DX2 analytically  !
 --------------------------------------------------------------------------------
 Trust Radius=3.00D-01 FncErr=1.00D-07 GrdErr=1.00D-06
 Number of steps in this run=     60 maximum allowed number of steps=    100.
 Search for a saddle point of order  1.
 GradGradGradGradGradGradGradGradGradGradGradGradGradGradGradGradGradGrad

 Leave Link  103 at Thu Apr 14 11:28:31 2016, MaxMem=    33554432 cpu:         0.0
 (Enter /usr/local/gau/g09/l202.exe)
                          Input orientation:                          
 ---------------------------------------------------------------------
 Center     Atomic      Atomic             Coordinates (Angstroms)
 Number     Number       Type             X           Y           Z
 ---------------------------------------------------------------------
      1          7           0        1.103191    1.313271    0.041300
      2          1           0        2.100421    1.389197   -0.041164
      3          6           0        0.485250    0.064851    0.016066
      4          1           0       -0.182672   -1.124342    0.135638
      5          6           0        1.393276   -1.133233    0.008386
      6          6           0       -0.855792   -0.041647    0.009589
      7          1           0        2.038793   -1.136145    0.897042
      8          1           0        0.812009   -2.055741    0.005406
      9          1           0        2.048501   -1.126183   -0.874143
     10          8           0       -1.665073    1.109560   -0.081713
     11          1           0        0.540843    2.141055   -0.055422
     12          8           0       -1.546040   -1.257178    0.113695
     13          1           0       -2.278101    1.157709    0.683226
 ---------------------------------------------------------------------
                    Distance matrix (angstroms):
                    1          2          3          4          5
     1  N    0.000000
     2  H    1.003510   0.000000
     3  C    1.393212   2.089484   0.000000
     4  H    2.757590   3.400243   1.369159   0.000000
     5  C    2.463862   2.620145   1.503321   1.581102   0.000000
     6  C    2.382105   3.284674   1.345280   1.281096   2.499974
     7  H    2.758131   2.694695   2.152210   2.348357   1.098367
     8  H    3.381762   3.678284   2.145646   1.368888   1.090367
     9  H    2.771747   2.650224   2.157496   2.449039   1.099194
    10  O    2.778474   3.776081   2.392669   2.689809   3.793644
    11  H    1.005394   1.731409   2.078178   3.350044   3.384032
    12  O    3.692001   4.508210   2.425579   1.370000   2.943812
    13  H    3.445200   4.444073   3.045579   3.146178   4.379821
                    6          7          8          9         10
     6  C    0.000000
     7  H    3.219335   0.000000
     8  H    2.614986   1.773604   0.000000
     9  H    3.223681   1.771240   1.779493   0.000000
    10  O    1.410159   4.440695   4.020281   4.406487   0.000000
    11  H    2.592104   3.727074   4.205987   3.690282   2.435311
    12  O    1.401712   3.671418   2.491952   3.730108   2.377772
    13  H    1.978688   4.893164   4.509377   5.134301   0.981455
                   11         12         13
    11  H    0.000000
    12  O    3.991449   0.000000
    13  H    3.075551   2.586882   0.000000
 Stoichiometry    C3H7NO2
 Framework group  C1[X(C3H7NO2)]
 Deg. of freedom    33
 Full point group                 C1      NOp   1
 Largest Abelian subgroup         C1      NOp   1
 Largest concise Abelian subgroup C1      NOp   1
                         Standard orientation:                         
 ---------------------------------------------------------------------
 Center     Atomic      Atomic             Coordinates (Angstroms)
 Number     Number       Type             X           Y           Z
 ---------------------------------------------------------------------
      1          7           0        1.109366    1.416037    0.059113
      2          1           0        2.095398    1.591320   -0.004522
      3          6           0        0.617836    0.113906   -0.003274
      4          1           0        0.068559   -1.137511    0.079486
      5          6           0        1.639457   -0.988799   -0.020746
      6          6           0       -0.705947   -0.123502   -0.035122
      7          1           0        2.268664   -0.948637    0.878641
      8          1           0        1.151985   -1.963586   -0.053334
      9          1           0        2.304021   -0.897339   -0.891503
     10          8           0       -1.623208    0.944514   -0.115889
     11          1           0        0.469745    2.186633   -0.029685
     12          8           0       -1.274612   -1.402960    0.031235
     13          1           0       -2.249449    0.914798    0.639221
 ---------------------------------------------------------------------
 Rotational constants (GHZ):      4.9096584      3.3236417      2.0179942
 Leave Link  202 at Thu Apr 14 11:28:31 2016, MaxMem=    33554432 cpu:         0.0
 (Enter /usr/local/gau/g09/l301.exe)
 Standard basis: 6-31G (6D, 7F)
 Ernie: Thresh=  0.10000D-02 Tol=  0.10000D-05 Strict=F.
 There are    68 symmetry adapted cartesian basis functions of A   symmetry.
 There are    68 symmetry adapted basis functions of A   symmetry.
    68 basis functions,   160 primitive gaussians,    68 cartesian basis functions
    24 alpha electrons       24 beta electrons
       nuclear repulsion energy       248.1838174729 Hartrees.
 IExCor=  402 DFT=T Ex+Corr=B3LYP ExCW=0 ScaHFX=  0.200000
 ScaDFX=  0.800000  0.720000  1.000000  0.810000 ScalE2=  1.000000  1.000000
 IRadAn=      0 IRanWt=     -1 IRanGd=            0 ICorTp=0 IEmpDi=  4
 NAtoms=   13 NActive=   13 NUniq=   13 SFac= 1.00D+00 NAtFMM=   60 NAOKFM=F Big=F
 Integral buffers will be    131072 words long.
 Raffenetti 2 integral format.
 Two-electron integral symmetry is turned on.
 Leave Link  301 at Thu Apr 14 11:28:31 2016, MaxMem=    33554432 cpu:         0.0
 (Enter /usr/local/gau/g09/l302.exe)
 NPDir=0 NMtPBC=     1 NCelOv=     1 NCel=       1 NClECP=     1 NCelD=      1
         NCelK=      1 NCelE2=     1 NClLst=     1 CellRange=     0.0.
 One-electron integrals computed using PRISM.
 NBasis=    68 RedAO= T EigKep=  2.68D-03  NBF=    68
 NBsUse=    68 1.00D-06 EigRej= -1.00D+00 NBFU=    68
 Precomputing XC quadrature grid using
 IXCGrd= 4 IRadAn=           0 IRanWt=          -1 IRanGd=           0 AccXCQ= 0.00D+00.
 Generated NRdTot=       0 NPtTot=           0 NUsed=           0 NTot=          32
 NSgBfM=    68    68    68    68    68 MxSgAt=    13 MxSgA2=    13.
 Leave Link  302 at Thu Apr 14 11:28:32 2016, MaxMem=    33554432 cpu:         0.2
 (Enter /usr/local/gau/g09/l303.exe)
 DipDrv:  MaxL=1.
 Leave Link  303 at Thu Apr 14 11:28:32 2016, MaxMem=    33554432 cpu:         0.0
 (Enter /usr/local/gau/g09/l401.exe)
 ExpMin= 1.61D-01 ExpMax= 5.48D+03 ExpMxC= 8.25D+02 IAcc=1 IRadAn=         1 AccDes= 0.00D+00
 Harris functional with IExCor=  402 and IRadAn=       1 diagonalized for initial guess.
 HarFok:  IExCor=  402 AccDes= 0.00D+00 IRadAn=         1 IDoV= 1 UseB2=F ITyADJ=14
 ICtDFT=  3500011 ScaDFX=  1.000000  1.000000  1.000000  1.000000
 FoFCou: FMM=F IPFlag=           0 FMFlag=      100000 FMFlg1=           0
         NFxFlg=           0 DoJE=T BraDBF=F KetDBF=T FulRan=T
         wScrn=  0.000000 ICntrl=     500 IOpCl=  0 I1Cent=   200000004 NGrid=           0
         NMat0=    1 NMatS0=      1 NMatT0=    0 NMatD0=    1 NMtDS0=    0 NMtDT0=    0
 Petite list used in FoFCou.
 Harris En= -323.479049117661    
 JPrj=0 DoOrth=F DoCkMO=F.
 Leave Link  401 at Thu Apr 14 11:28:34 2016, MaxMem=    33554432 cpu:         0.5
 (Enter /usr/local/gau/g09/l502.exe)
 Closed shell SCF:
 Using DIIS extrapolation, IDIIS=  1040.
 Integral symmetry usage will be decided dynamically.
 Keep R1 ints in memory in canonical form, NReq=3676491.
 IVT=       33364 IEndB=       33364 NGot=    33554432 MDV=    30768038
 LenX=    30768038 LenY=    30762973
 Requested convergence on RMS density matrix=1.00D-08 within 128 cycles.
 Requested convergence on MAX density matrix=1.00D-06.
 Requested convergence on             energy=1.00D-06.
 No special actions if energy rises.
 FoFCou: FMM=F IPFlag=           0 FMFlag=           0 FMFlg1=           0
         NFxFlg=           0 DoJE=F BraDBF=F KetDBF=F FulRan=T
         wScrn=  0.000000 ICntrl=     600 IOpCl=  0 I1Cent=           0 NGrid=           0
         NMat0=    1 NMatS0=   2346 NMatT0=    0 NMatD0=    1 NMtDS0=    0 NMtDT0=    0
 Symmetry not used in FoFCou.
 Integral accuracy reduced to 1.0D-05 until final iterations.

 Cycle   1  Pass 0  IDiag  1:
 E= -323.249470405788    
 DIIS: error= 3.56D-02 at cycle   1 NSaved=   1.
 NSaved= 1 IEnMin= 1 EnMin= -323.249470405788     IErMin= 1 ErrMin= 3.56D-02
 ErrMax= 3.56D-02  0.00D+00 EMaxC= 1.00D-01 BMatC= 2.00D-01 BMatP= 2.00D-01
 IDIUse=3 WtCom= 6.44D-01 WtEn= 3.56D-01
 Coeff-Com:  0.100D+01
 Coeff-En:   0.100D+01
 Coeff:      0.100D+01
 Gap=     0.184 Goal=   None    Shift=    0.000
 GapD=    0.184 DampG=1.000 DampE=0.500 DampFc=0.5000 IDamp=-1.
 Damping current iteration by 5.00D-01
 RMSDP=1.85D-02 MaxDP=3.15D-01              OVMax= 1.88D-01

 Cycle   2  Pass 0  IDiag  1:
 E= -323.306787977890     Delta-E=       -0.057317572102 Rises=F Damp=T
 DIIS: error= 1.19D-02 at cycle   2 NSaved=   2.
 NSaved= 2 IEnMin= 2 EnMin= -323.306787977890     IErMin= 2 ErrMin= 1.19D-02
 ErrMax= 1.19D-02  0.00D+00 EMaxC= 1.00D-01 BMatC= 2.28D-02 BMatP= 2.00D-01
 IDIUse=3 WtCom= 8.81D-01 WtEn= 1.19D-01
 Coeff-Com:  0.204D+00 0.796D+00
 Coeff-En:   0.309D+00 0.691D+00
 Coeff:      0.217D+00 0.783D+00
 Gap=     0.231 Goal=   None    Shift=    0.000
 RMSDP=4.42D-03 MaxDP=7.42D-02 DE=-5.73D-02 OVMax= 1.28D-01

 Cycle   3  Pass 0  IDiag  1:
 E= -323.410299771145     Delta-E=       -0.103511793255 Rises=F Damp=F
 DIIS: error= 1.53D-02 at cycle   3 NSaved=   3.
 NSaved= 3 IEnMin= 3 EnMin= -323.410299771145     IErMin= 2 ErrMin= 1.19D-02
 ErrMax= 1.53D-02  0.00D+00 EMaxC= 1.00D-01 BMatC= 2.18D-02 BMatP= 2.28D-02
 IDIUse=3 WtCom= 8.47D-01 WtEn= 1.53D-01
 Coeff-Com:  0.990D-01 0.498D+00 0.403D+00
 Coeff-En:   0.000D+00 0.000D+00 0.100D+01
 Coeff:      0.838D-01 0.422D+00 0.494D+00
 Gap=     0.203 Goal=   None    Shift=    0.000
 RMSDP=3.73D-03 MaxDP=4.84D-02 DE=-1.04D-01 OVMax= 6.23D-02

 Cycle   4  Pass 0  IDiag  1:
 E= -323.423178084841     Delta-E=       -0.012878313696 Rises=F Damp=F
 DIIS: error= 1.32D-02 at cycle   4 NSaved=   4.
 NSaved= 4 IEnMin= 4 EnMin= -323.423178084841     IErMin= 2 ErrMin= 1.19D-02
 ErrMax= 1.32D-02  0.00D+00 EMaxC= 1.00D-01 BMatC= 7.98D-03 BMatP= 2.18D-02
 IDIUse=3 WtCom= 8.68D-01 WtEn= 1.32D-01
 Coeff-Com:  0.411D-01 0.176D+00 0.360D+00 0.422D+00
 Coeff-En:   0.000D+00 0.000D+00 0.306D+00 0.694D+00
 Coeff:      0.357D-01 0.153D+00 0.353D+00 0.458D+00
 Gap=     0.199 Goal=   None    Shift=    0.000
 RMSDP=1.82D-03 MaxDP=2.23D-02 DE=-1.29D-02 OVMax= 4.18D-02

 Cycle   5  Pass 0  IDiag  1:
 E= -323.429752659021     Delta-E=       -0.006574574180 Rises=F Damp=F
 DIIS: error= 3.64D-03 at cycle   5 NSaved=   5.
 NSaved= 5 IEnMin= 5 EnMin= -323.429752659021     IErMin= 5 ErrMin= 3.64D-03
 ErrMax= 3.64D-03  0.00D+00 EMaxC= 1.00D-01 BMatC= 4.37D-04 BMatP= 7.98D-03
 IDIUse=3 WtCom= 9.64D-01 WtEn= 3.64D-02
 Coeff-Com:  0.653D-02 0.255D-02 0.137D+00 0.293D+00 0.561D+00
 Coeff-En:   0.000D+00 0.000D+00 0.000D+00 0.350D-01 0.965D+00
 Coeff:      0.629D-02 0.246D-02 0.132D+00 0.284D+00 0.576D+00
 Gap=     0.200 Goal=   None    Shift=    0.000
 RMSDP=4.47D-04 MaxDP=7.60D-03 DE=-6.57D-03 OVMax= 1.25D-02

 Cycle   6  Pass 0  IDiag  1:
 E= -323.430194471378     Delta-E=       -0.000441812357 Rises=F Damp=F
 DIIS: error= 6.81D-04 at cycle   6 NSaved=   6.
 NSaved= 6 IEnMin= 6 EnMin= -323.430194471378     IErMin= 6 ErrMin= 6.81D-04
 ErrMax= 6.81D-04  0.00D+00 EMaxC= 1.00D-01 BMatC= 1.29D-05 BMatP= 4.37D-04
 IDIUse=3 WtCom= 9.93D-01 WtEn= 6.81D-03
 Coeff-Com:  0.188D-02-0.369D-02 0.508D-01 0.116D+00 0.285D+00 0.550D+00
 Coeff-En:   0.000D+00 0.000D+00 0.000D+00 0.000D+00 0.000D+00 0.100D+01
 Coeff:      0.186D-02-0.367D-02 0.504D-01 0.116D+00 0.283D+00 0.553D+00
 Gap=     0.199 Goal=   None    Shift=    0.000
 RMSDP=7.83D-05 MaxDP=1.38D-03 DE=-4.42D-04 OVMax= 2.46D-03

 Cycle   7  Pass 0  IDiag  1:
 E= -323.430205887396     Delta-E=       -0.000011416018 Rises=F Damp=F
 DIIS: error= 1.64D-04 at cycle   7 NSaved=   7.
 NSaved= 7 IEnMin= 7 EnMin= -323.430205887396     IErMin= 7 ErrMin= 1.64D-04
 ErrMax= 1.64D-04  0.00D+00 EMaxC= 1.00D-01 BMatC= 2.35D-06 BMatP= 1.29D-05
 IDIUse=3 WtCom= 9.98D-01 WtEn= 1.64D-03
 Coeff-Com:  0.345D-04-0.216D-02 0.423D-02 0.131D-01 0.637D-01 0.351D+00
 Coeff-Com:  0.570D+00
 Coeff-En:   0.000D+00 0.000D+00 0.000D+00 0.000D+00 0.000D+00 0.133D+00
 Coeff-En:   0.867D+00
 Coeff:      0.345D-04-0.216D-02 0.423D-02 0.131D-01 0.636D-01 0.350D+00
 Coeff:      0.571D+00
 Gap=     0.199 Goal=   None    Shift=    0.000
 RMSDP=2.65D-05 MaxDP=3.52D-04 DE=-1.14D-05 OVMax= 4.27D-04

 Cycle   8  Pass 0  IDiag  1:
 E= -323.430207978476     Delta-E=       -0.000002091080 Rises=F Damp=F
 DIIS: error= 1.98D-05 at cycle   8 NSaved=   8.
 NSaved= 8 IEnMin= 8 EnMin= -323.430207978476     IErMin= 8 ErrMin= 1.98D-05
 ErrMax= 1.98D-05  0.00D+00 EMaxC= 1.00D-01 BMatC= 4.26D-08 BMatP= 2.35D-06
 IDIUse=1 WtCom= 1.00D+00 WtEn= 0.00D+00
 Coeff-Com: -0.439D-04-0.845D-03-0.612D-04 0.128D-02 0.181D-01 0.145D+00
 Coeff-Com:  0.257D+00 0.580D+00
 Coeff:     -0.439D-04-0.845D-03-0.612D-04 0.128D-02 0.181D-01 0.145D+00
 Coeff:      0.257D+00 0.580D+00
 Gap=     0.199 Goal=   None    Shift=    0.000
 RMSDP=3.96D-06 MaxDP=4.57D-05 DE=-2.09D-06 OVMax= 4.22D-05

 Initial convergence to 1.0D-05 achieved.  Increase integral accuracy.
 Cycle   9  Pass 1  IDiag  1:
 E= -323.430205731475     Delta-E=        0.000002247001 Rises=F Damp=F
 DIIS: error= 8.14D-06 at cycle   1 NSaved=   1.
 NSaved= 1 IEnMin= 1 EnMin= -323.430205731475     IErMin= 1 ErrMin= 8.14D-06
 ErrMax= 8.14D-06  0.00D+00 EMaxC= 1.00D-01 BMatC= 9.44D-09 BMatP= 9.44D-09
 IDIUse=1 WtCom= 1.00D+00 WtEn= 0.00D+00
 Coeff-Com:  0.100D+01
 Coeff:      0.100D+01
 Gap=     0.199 Goal=   None    Shift=    0.000
 RMSDP=3.96D-06 MaxDP=4.57D-05 DE= 2.25D-06 OVMax= 4.21D-05

 Cycle  10  Pass 1  IDiag  1:
 E= -323.430205741491     Delta-E=       -0.000000010016 Rises=F Damp=F
 DIIS: error= 7.20D-06 at cycle   2 NSaved=   2.
 NSaved= 2 IEnMin= 2 EnMin= -323.430205741491     IErMin= 2 ErrMin= 7.20D-06
 ErrMax= 7.20D-06  0.00D+00 EMaxC= 1.00D-01 BMatC= 5.90D-09 BMatP= 9.44D-09
 IDIUse=1 WtCom= 1.00D+00 WtEn= 0.00D+00
 Coeff-Com:  0.420D+00 0.580D+00
 Coeff:      0.420D+00 0.580D+00
 Gap=     0.199 Goal=   None    Shift=    0.000
 RMSDP=1.81D-06 MaxDP=2.22D-05 DE=-1.00D-08 OVMax= 2.43D-05

 Cycle  11  Pass 1  IDiag  1:
 E= -323.430205744862     Delta-E=       -0.000000003371 Rises=F Damp=F
 DIIS: error= 6.49D-06 at cycle   3 NSaved=   3.
 NSaved= 3 IEnMin= 3 EnMin= -323.430205744862     IErMin= 3 ErrMin= 6.49D-06
 ErrMax= 6.49D-06  0.00D+00 EMaxC= 1.00D-01 BMatC= 2.39D-09 BMatP= 5.90D-09
 IDIUse=1 WtCom= 1.00D+00 WtEn= 0.00D+00
 Coeff-Com:  0.709D-01 0.377D+00 0.553D+00
 Coeff:      0.709D-01 0.377D+00 0.553D+00
 Gap=     0.199 Goal=   None    Shift=    0.000
 RMSDP=1.10D-06 MaxDP=1.34D-05 DE=-3.37D-09 OVMax= 1.81D-05

 Cycle  12  Pass 1  IDiag  1:
 E= -323.430205746232     Delta-E=       -0.000000001370 Rises=F Damp=F
 DIIS: error= 3.39D-06 at cycle   4 NSaved=   4.
 NSaved= 4 IEnMin= 4 EnMin= -323.430205746232     IErMin= 4 ErrMin= 3.39D-06
 ErrMax= 3.39D-06  0.00D+00 EMaxC= 1.00D-01 BMatC= 7.48D-10 BMatP= 2.39D-09
 IDIUse=1 WtCom= 1.00D+00 WtEn= 0.00D+00
 Coeff-Com: -0.163D-01 0.187D+00 0.406D+00 0.423D+00
 Coeff:     -0.163D-01 0.187D+00 0.406D+00 0.423D+00
 Gap=     0.199 Goal=   None    Shift=    0.000
 RMSDP=5.20D-07 MaxDP=6.90D-06 DE=-1.37D-09 OVMax= 9.38D-06

 Cycle  13  Pass 1  IDiag  1:
 E= -323.430205746859     Delta-E=       -0.000000000627 Rises=F Damp=F
 DIIS: error= 7.62D-07 at cycle   5 NSaved=   5.
 NSaved= 5 IEnMin= 5 EnMin= -323.430205746859     IErMin= 5 ErrMin= 7.62D-07
 ErrMax= 7.62D-07  0.00D+00 EMaxC= 1.00D-01 BMatC= 1.56D-11 BMatP= 7.48D-10
 IDIUse=1 WtCom= 1.00D+00 WtEn= 0.00D+00
 Coeff-Com: -0.106D-01 0.884D-01 0.200D+00 0.243D+00 0.479D+00
 Coeff:     -0.106D-01 0.884D-01 0.200D+00 0.243D+00 0.479D+00
 Gap=     0.199 Goal=   None    Shift=    0.000
 RMSDP=8.43D-08 MaxDP=1.20D-06 DE=-6.27D-10 OVMax= 2.49D-06

 Cycle  14  Pass 1  IDiag  1:
 E= -323.430205746871     Delta-E=       -0.000000000012 Rises=F Damp=F
 DIIS: error= 1.38D-07 at cycle   6 NSaved=   6.
 NSaved= 6 IEnMin= 6 EnMin= -323.430205746871     IErMin= 6 ErrMin= 1.38D-07
 ErrMax= 1.38D-07  0.00D+00 EMaxC= 1.00D-01 BMatC= 1.48D-12 BMatP= 1.56D-11
 IDIUse=1 WtCom= 1.00D+00 WtEn= 0.00D+00
 Coeff-Com: -0.353D-02 0.176D-01 0.435D-01 0.694D-01 0.273D+00 0.601D+00
 Coeff:     -0.353D-02 0.176D-01 0.435D-01 0.694D-01 0.273D+00 0.601D+00
 Gap=     0.199 Goal=   None    Shift=    0.000
 RMSDP=2.15D-08 MaxDP=3.29D-07 DE=-1.17D-11 OVMax= 3.82D-07

 Cycle  15  Pass 1  IDiag  1:
 E= -323.430205746874     Delta-E=       -0.000000000003 Rises=F Damp=F
 DIIS: error= 2.45D-08 at cycle   7 NSaved=   7.
 NSaved= 7 IEnMin= 7 EnMin= -323.430205746874     IErMin= 7 ErrMin= 2.45D-08
 ErrMax= 2.45D-08  0.00D+00 EMaxC= 1.00D-01 BMatC= 9.12D-14 BMatP= 1.48D-12
 IDIUse=1 WtCom= 1.00D+00 WtEn= 0.00D+00
 Coeff-Com: -0.713D-03 0.136D-02 0.521D-02 0.132D-01 0.995D-01 0.269D+00
 Coeff-Com:  0.613D+00
 Coeff:     -0.713D-03 0.136D-02 0.521D-02 0.132D-01 0.995D-01 0.269D+00
 Coeff:      0.613D+00
 Gap=     0.199 Goal=   None    Shift=    0.000
 RMSDP=7.61D-09 MaxDP=1.23D-07 DE=-2.96D-12 OVMax= 1.79D-07

 SCF Done:  E(RB3LYP) =  -323.430205747     A.U. after   15 cycles
            NFock= 15  Conv=0.76D-08     -V/T= 2.0046
 KE= 3.219483068326D+02 PE=-1.253875115134D+03 EE= 3.603127850816D+02
 Leave Link  502 at Thu Apr 14 11:29:15 2016, MaxMem=    33554432 cpu:        11.5
 (Enter /usr/local/gau/g09/l801.exe)
 DoSCS=F DFT=T ScalE2(SS,OS)=  1.000000  1.000000
 Range of M.O.s used for correlation:     1    68
 NBasis=    68 NAE=    24 NBE=    24 NFC=     0 NFV=     0
 NROrb=     68 NOA=    24 NOB=    24 NVA=    44 NVB=    44
 Leave Link  801 at Thu Apr 14 11:29:15 2016, MaxMem=    33554432 cpu:         0.0
 (Enter /usr/local/gau/g09/l1101.exe)
 Using compressed storage, NAtomX=    13.
 Will process     14 centers per pass.
 Leave Link 1101 at Thu Apr 14 11:29:16 2016, MaxMem=    33554432 cpu:         0.1
 (Enter /usr/local/gau/g09/l1102.exe)
 Symmetrizing basis deriv contribution to polar:
 IMax=3 JMax=2 DiffMx= 0.00D+00
 Leave Link 1102 at Thu Apr 14 11:29:16 2016, MaxMem=    33554432 cpu:         0.0
 (Enter /usr/local/gau/g09/l1110.exe)
 Forming Gx(P) for the SCF density, NAtomX=    13.
 Integral derivatives from FoFJK, PRISM(SPDF).
 Do as many integral derivatives as possible in FoFJK.
 G2DrvN: MDV=      33554224.
 G2DrvN: will do    14 centers at a time, making    1 passes.
 Calling FoFCou, ICntrl=  3107 FMM=F I1Cent=   0 AccDes= 0.00D+00.
 FoFJK:  IHMeth= 1 ICntrl=    3107 DoSepK=F KAlg= 0 I1Cent=   0 FoldK=F
 IRaf=         0 NMat=   1 IRICut=       1 DoRegI=T DoRafI=F ISym2E= 0.
 FoFCou: FMM=F IPFlag=           0 FMFlag=      100000 FMFlg1=           0
         NFxFlg=           0 DoJE=F BraDBF=F KetDBF=F FulRan=T
         wScrn=  0.000000 ICntrl=    3107 IOpCl=  0 I1Cent=           0 NGrid=           0
         NMat0=    1 NMatS0=      1 NMatT0=    0 NMatD0=    1 NMtDS0=    0 NMtDT0=    0
 Symmetry not used in FoFCou.
 End of G2Drv F.D. properties file   721 does not exist.
 End of G2Drv F.D. properties file   722 does not exist.
 End of G2Drv F.D. properties file   788 does not exist.
 Leave Link 1110 at Thu Apr 14 11:31:00 2016, MaxMem=    33554432 cpu:        25.6
 (Enter /usr/local/gau/g09/l1002.exe)
 Minotr:  Closed shell wavefunction.
          IDoAtm=1111111111111
          Direct CPHF calculation.
          Differentiating once with respect to nuclear coordinates.
          Requested convergence is 1.0D-08 RMS, and 1.0D-07 maximum.
          Secondary convergence is 1.0D-12 RMS, and 1.0D-12 maximum.
          NewPWx=T KeepS1=F KeepF1=F KeepIn=T MapXYZ=F SortEE=F KeepMc=T.
          MDV=      33554230 using IRadAn=       2.
 Generate precomputed XC quadrature information.
 Keep R1 ints in memory in canonical form, NReq=3645297.
 FoFCou: FMM=F IPFlag=           0 FMFlag=           0 FMFlg1=           0
         NFxFlg=           0 DoJE=F BraDBF=F KetDBF=F FulRan=T
         wScrn=  0.000000 ICntrl=     600 IOpCl=  0 I1Cent=           0 NGrid=           0
         NMat0=    1 NMatS0=   2346 NMatT0=    0 NMatD0=    1 NMtDS0=    0 NMtDT0=    0
 Symmetry not used in FoFCou.
          Solving linear equations simultaneously, MaxMat=       0.
          There are    42 degrees of freedom in the 1st order CPHF.  IDoFFX=6 NUNeed=     0.
     36 vectors produced by pass  0 Test12= 2.51D-15 2.38D-09 XBig12= 1.60D-01 1.29D-01.
 AX will form    36 AO Fock derivatives at one time.
     36 vectors produced by pass  1 Test12= 2.51D-15 2.38D-09 XBig12= 3.04D-02 3.69D-02.
     36 vectors produced by pass  2 Test12= 2.51D-15 2.38D-09 XBig12= 1.90D-04 2.37D-03.
     36 vectors produced by pass  3 Test12= 2.51D-15 2.38D-09 XBig12= 2.64D-07 6.97D-05.
     36 vectors produced by pass  4 Test12= 2.51D-15 2.38D-09 XBig12= 2.20D-10 2.20D-06.
     19 vectors produced by pass  5 Test12= 2.51D-15 2.38D-09 XBig12= 1.17D-13 4.94D-08.
 InvSVY:  IOpt=1 It=  1 EMax= 2.00D-15
 Solved reduced A of dimension   199 with    36 vectors.
 End of Minotr F.D. properties file   721 does not exist.
 End of Minotr F.D. properties file   722 does not exist.
 End of Minotr F.D. properties file   788 does not exist.
 Leave Link 1002 at Thu Apr 14 11:32:04 2016, MaxMem=    33554432 cpu:        16.2
 (Enter /usr/local/gau/g09/l601.exe)
 Copying SCF densities to generalized density rwf, IOpCl= 0 IROHF=0.

 **********************************************************************

            Population analysis using the SCF density.

 **********************************************************************

 Orbital symmetries:
       Occupied  (A) (A) (A) (A) (A) (A) (A) (A) (A) (A) (A) (A)
                 (A) (A) (A) (A) (A) (A) (A) (A) (A) (A) (A) (A)
       Virtual   (A) (A) (A) (A) (A) (A) (A) (A) (A) (A) (A) (A)
                 (A) (A) (A) (A) (A) (A) (A) (A) (A) (A) (A) (A)
                 (A) (A) (A) (A) (A) (A) (A) (A) (A) (A) (A) (A)
                 (A) (A) (A) (A) (A) (A) (A) (A)
 The electronic state is 1-A.
 Alpha  occ. eigenvalues --  -19.16051 -19.13443 -14.32782 -10.28085 -10.23510
 Alpha  occ. eigenvalues --  -10.22646  -1.06380  -0.99524  -0.91538  -0.81669
 Alpha  occ. eigenvalues --   -0.71899  -0.58505  -0.56846  -0.52400  -0.46859
 Alpha  occ. eigenvalues --   -0.46000  -0.43560  -0.42859  -0.39812  -0.35264
 Alpha  occ. eigenvalues --   -0.30955  -0.29380  -0.28714  -0.16966
 Alpha virt. eigenvalues --    0.02979   0.04785   0.06837   0.09171   0.12590
 Alpha virt. eigenvalues --    0.13745   0.14679   0.15543   0.20187   0.22382
 Alpha virt. eigenvalues --    0.30294   0.37583   0.44764   0.50588   0.53812
 Alpha virt. eigenvalues --    0.57978   0.61843   0.62118   0.62438   0.67499
 Alpha virt. eigenvalues --    0.72587   0.76299   0.77973   0.80425   0.83260
 Alpha virt. eigenvalues --    0.85247   0.87393   0.89415   0.91741   0.91984
 Alpha virt. eigenvalues --    0.93117   0.95986   1.00149   1.05322   1.08155
 Alpha virt. eigenvalues --    1.11914   1.15029   1.22266   1.28405   1.37209
 Alpha virt. eigenvalues --    1.52243   1.58493   1.85774   1.99669
          Condensed to atoms (all electrons):
               1          2          3          4          5          6
     1  N    6.995880   0.328523   0.193909   0.006803  -0.054832  -0.020932
     2  H    0.328523   0.417736  -0.025982  -0.000494  -0.005284   0.004470
     3  C    0.193909  -0.025982   5.672410  -0.176915   0.374029   0.272222
     4  H    0.006803  -0.000494  -0.176915   0.720654  -0.031528  -0.061316
     5  C   -0.054832  -0.005284   0.374029  -0.031528   5.327273  -0.134822
     6  C   -0.020932   0.004470   0.272222  -0.061316  -0.134822   5.159161
     7  H    0.000511   0.000529  -0.047602  -0.006899   0.354570   0.006603
     8  H    0.003412   0.000028  -0.051051   0.030869   0.353892  -0.010656
     9  H    0.001446   0.001525  -0.039369   0.002246   0.344512   0.000554
    10  O   -0.001614   0.000302  -0.131895   0.022825   0.001207   0.247207
    11  H    0.331796  -0.024361  -0.030332  -0.000501   0.004396  -0.006466
    12  O    0.002708  -0.000050  -0.159312   0.177294  -0.024875   0.246350
    13  H    0.000704  -0.000005   0.003326  -0.002619  -0.000076  -0.038842
               7          8          9         10         11         12
     1  N    0.000511   0.003412   0.001446  -0.001614   0.331796   0.002708
     2  H    0.000529   0.000028   0.001525   0.000302  -0.024361  -0.000050
     3  C   -0.047602  -0.051051  -0.039369  -0.131895  -0.030332  -0.159312
     4  H   -0.006899   0.030869   0.002246   0.022825  -0.000501   0.177294
     5  C    0.354570   0.353892   0.344512   0.001207   0.004396  -0.024875
     6  C    0.006603  -0.010656   0.000554   0.247207  -0.006466   0.246350
     7  H    0.557827  -0.017455  -0.042108   0.000029  -0.000068   0.001077
     8  H   -0.017455   0.477331  -0.018698   0.000018  -0.000177  -0.002722
     9  H   -0.042108  -0.018698   0.558683  -0.000009  -0.000061   0.000488
    10  O    0.000029   0.000018  -0.000009   8.292868   0.014070  -0.077735
    11  H   -0.000068  -0.000177  -0.000061   0.014070   0.383273   0.000198
    12  O    0.001077  -0.002722   0.000488  -0.077735   0.000198   8.358697
    13  H    0.000035   0.000015  -0.000014   0.239391  -0.000702   0.003543
              13
     1  N    0.000704
     2  H   -0.000005
     3  C    0.003326
     4  H   -0.002619
     5  C   -0.000076
     6  C   -0.038842
     7  H    0.000035
     8  H    0.000015
     9  H   -0.000014
    10  O    0.239391
    11  H   -0.000702
    12  O    0.003543
    13  H    0.419707
 Mulliken charges:
               1
     1  N   -0.788312
     2  H    0.303064
     3  C    0.146562
     4  H    0.319581
     5  C   -0.508464
     6  C    0.336467
     7  H    0.192952
     8  H    0.235194
     9  H    0.190806
    10  O   -0.606662
    11  H    0.328935
    12  O   -0.525659
    13  H    0.375537
 Sum of Mulliken charges =   0.00000
 Mulliken charges with hydrogens summed into heavy atoms:
               1
     1  N   -0.156313
     3  C    0.146562
     5  C    0.110488
     6  C    0.656048
    10  O   -0.231126
    12  O   -0.525659
 APT charges:
               1
     1  N   -1.321890
     2  H    0.703210
     3  C    0.188273
     4  H    0.171512
     5  C   -1.237447
     6  C    0.068662
     7  H    0.465554
     8  H    0.391390
     9  H    0.464380
    10  O   -0.765980
    11  H    0.547259
    12  O   -0.332123
    13  H    0.657201
 Sum of APT charges =   0.00000
 APT charges with hydrogens summed into heavy atoms:
               1
     1  N   -0.071421
     3  C    0.188273
     5  C    0.083877
     6  C    0.240174
    10  O   -0.108779
    12  O   -0.332123
 Electronic spatial extent (au):  <R**2>=            598.7721
 Charge=              0.0000 electrons
 Dipole moment (field-independent basis, Debye):
    X=              3.8222    Y=              1.3215    Z=              1.2396  Tot=              4.2298
 Quadrupole moment (field-independent basis, Debye-Ang):
   XX=            -31.6633   YY=            -36.2706   ZZ=            -37.8398
   XY=             -4.3500   XZ=             -4.0304   YZ=              1.0839
 Traceless Quadrupole moment (field-independent basis, Debye-Ang):
   XX=              3.5946   YY=             -1.0127   ZZ=             -2.5819
   XY=             -4.3500   XZ=             -4.0304   YZ=              1.0839
 Octapole moment (field-independent basis, Debye-Ang**2):
  XXX=              0.5286  YYY=             15.2069  ZZZ=              0.6710  XYY=             10.3070
  XXY=             11.0227  XXZ=              7.6668  XZZ=             -3.9735  YZZ=             -0.1141
  YYZ=              0.3873  XYZ=             -4.4865
 Hexadecapole moment (field-independent basis, Debye-Ang**3):
 XXXX=           -345.2968 YYYY=           -259.0984 ZZZZ=            -42.7284 XXXY=             -4.2132
 XXXZ=            -19.8518 YYYX=             -1.9114 YYYZ=              0.0843 ZZZX=             -3.0148
 ZZZY=              0.2057 XXYY=           -112.0009 XXZZ=            -70.2669 YYZZ=            -57.6840
 XXYZ=              7.0024 YYXZ=             -4.8460 ZZXY=             -4.5458
 N-N= 2.481838174729D+02 E-N=-1.253875118539D+03  KE= 3.219483068326D+02
  Exact polarizability:   0.000   0.000   0.000   0.000   0.000   0.000
 Approx polarizability: 114.734  15.934  71.472  -1.395  -0.156  32.085
 No NMR shielding tensors so no spin-rotation constants.
 Leave Link  601 at Thu Apr 14 11:32:04 2016, MaxMem=    33554432 cpu:         0.1
 (Enter /usr/local/gau/g09/l701.exe)
 Compute integral second derivatives.
 ... and contract with generalized density number  0.
 Leave Link  701 at Thu Apr 14 11:32:05 2016, MaxMem=    33554432 cpu:         0.1
 (Enter /usr/local/gau/g09/l702.exe)
 L702 exits ... SP integral derivatives will be done elsewhere.
 Leave Link  702 at Thu Apr 14 11:32:05 2016, MaxMem=    33554432 cpu:         0.0
 (Enter /usr/local/gau/g09/l703.exe)
 Compute integral second derivatives, UseDBF=F ICtDFT=           0.
 Integral derivatives from FoFJK, PRISM(SPDF).
 Calling FoFJK, ICntrl=    100147 FMM=F ISym2X=0 I1Cent= 0 IOpClX= 0 NMat=1 NMatS=1 NMatT=0.
 FoFJK:  IHMeth= 1 ICntrl=  100147 DoSepK=F KAlg= 0 I1Cent=   0 FoldK=F
 IRaf=         0 NMat=   1 IRICut=       1 DoRegI=T DoRafI=F ISym2E= 0.
 FoFCou: FMM=F IPFlag=           0 FMFlag=      100000 FMFlg1=         800
         NFxFlg=           0 DoJE=F BraDBF=F KetDBF=F FulRan=T
         wScrn=  0.000000 ICntrl=  100147 IOpCl=  0 I1Cent=           0 NGrid=           0
         NMat0=    1 NMatS0=      1 NMatT0=    0 NMatD0=    1 NMtDS0=    0 NMtDT0=    0
 Symmetry not used in FoFCou.
 Leave Link  703 at Thu Apr 14 11:34:02 2016, MaxMem=    33554432 cpu:        24.6
 (Enter /usr/local/gau/g09/l716.exe)
 Dipole        = 1.50375090D+00 5.19901197D-01 4.87677939D-01
 Polarizability= 0.00000000D+00 0.00000000D+00 0.00000000D+00
                 0.00000000D+00 0.00000000D+00 0.00000000D+00
 ***** Axes restored to original set *****
 -------------------------------------------------------------------
 Center     Atomic                   Forces (Hartrees/Bohr)
 Number     Number              X              Y              Z
 -------------------------------------------------------------------
      1        7           0.009636375    0.006878710    0.003079160
      2        1          -0.000112085    0.000350445   -0.000820073
      3        6           0.022545462    0.052789407   -0.009137188
      4        1          -0.060604980   -0.093587025    0.021697775
      5        6           0.022559392   -0.001757684   -0.002223175
      6        6          -0.069953670    0.047893944   -0.008655724
      7        1          -0.003947808   -0.001061913    0.000886042
      8        1           0.009347182   -0.014862312   -0.001919000
      9        1          -0.004059790   -0.001647531   -0.001469835
     10        8           0.013537480    0.002638820    0.003008564
     11        1          -0.001153474   -0.001762020   -0.000385977
     12        8           0.063317126    0.007807527   -0.001787246
     13        1          -0.001111209   -0.003680367   -0.002273323
 -------------------------------------------------------------------
 Cartesian Forces:  Max     0.093587025 RMS     0.027202141
 Force constants in Cartesian coordinates: 
                1             2             3             4             5 
      1  0.868670D+00
      2 -0.365808D-01  0.755860D+00
      3 -0.114604D-01 -0.438663D-01  0.101184D-01
      4 -0.472916D+00 -0.257699D-01  0.319040D-01  0.489719D+00
      5 -0.224020D-01 -0.735657D-01  0.625648D-02  0.305443D-01  0.718480D-01
      6  0.441199D-01  0.649963D-02  0.327294D-02 -0.365639D-01 -0.508835D-02
      7 -0.164205D+00 -0.932336D-01  0.153959D-02 -0.969894D-02 -0.367854D-01
      8 -0.973662D-01 -0.290999D+00  0.870728D-02  0.483521D-02 -0.477815D-02
      9 -0.674285D-02 -0.851095D-02 -0.160311D-01  0.127073D-02  0.279503D-02
     10 -0.173182D-01 -0.862392D-02 -0.549815D-02  0.201850D-03 -0.137832D-02
     11  0.216916D-02 -0.470659D-02 -0.561792D-02 -0.389366D-03  0.274981D-02
     12  0.258197D-02  0.303965D-02 -0.952961D-02  0.613315D-04  0.257392D-03
     13  0.122000D-01 -0.142037D-01 -0.375958D-03  0.131525D-02 -0.592692D-03
     14  0.281249D-01 -0.376815D-01  0.658741D-03  0.111752D-02  0.256249D-02
     15 -0.871890D-04  0.259327D-03  0.436349D-02 -0.176752D-03 -0.293144D-04
     16 -0.222921D-01 -0.255703D-02  0.306793D-02  0.964862D-04  0.230357D-03
     17 -0.521043D-01 -0.800576D-02  0.226567D-02 -0.298091D-03 -0.755531D-02
     18 -0.266987D-02 -0.253358D-02  0.112686D-01  0.445443D-03 -0.122955D-03
     19  0.205776D-02 -0.938499D-03  0.215292D-02  0.348854D-03  0.378366D-03
     20 -0.880723D-03  0.262261D-02 -0.185999D-02 -0.464504D-03 -0.603230D-03
     21  0.698274D-03  0.416339D-03 -0.100270D-03 -0.113956D-03  0.709970D-03
     22 -0.432147D-02  0.237271D-02 -0.295743D-03 -0.135283D-03  0.437062D-03
     23  0.654638D-02 -0.111273D-02  0.279647D-03  0.305647D-03  0.442126D-03
     24  0.789712D-04 -0.376052D-03  0.120352D-02 -0.803407D-04 -0.914754D-04
     25  0.249427D-02 -0.709330D-03 -0.220944D-02  0.437518D-03  0.588124D-03
     26 -0.460925D-03  0.301950D-02  0.152189D-02 -0.791446D-03 -0.620840D-03
     27 -0.704662D-03 -0.617957D-03 -0.424491D-03  0.127314D-03 -0.821659D-03
     28  0.318235D-03 -0.329410D-02 -0.967013D-03  0.163094D-03  0.134898D-02
     29 -0.475721D-03  0.811697D-02  0.277198D-02 -0.998878D-03  0.118923D-02
     30  0.875215D-03 -0.138257D-02 -0.359906D-02  0.259698D-03  0.421944D-03
     31 -0.199343D+00  0.185886D+00 -0.197818D-01 -0.104401D-01  0.293136D-01
     32  0.183370D+00 -0.340003D+00  0.336364D-01 -0.904625D-02  0.837158D-02
     33 -0.270160D-01  0.458961D-01 -0.852284D-02  0.321265D-02 -0.401618D-02
     34 -0.539644D-02 -0.333472D-02  0.200350D-02  0.101178D-02 -0.163397D-02
     35 -0.919318D-02 -0.138063D-01 -0.327917D-02  0.111184D-02 -0.103023D-03
     36  0.298630D-03 -0.533811D-04  0.828583D-02 -0.157734D-03 -0.154538D-03
     37  0.513234D-04  0.986687D-03 -0.794469D-04 -0.104176D-03 -0.483858D-04
     38 -0.746201D-03  0.261218D-03 -0.147469D-02 -0.156107D-03  0.630528D-04
     39  0.280667D-04  0.122974D-02 -0.305486D-03 -0.188493D-03 -0.116348D-03
                6             7             8             9            10 
      6  0.141018D-02
      7 -0.234494D-02  0.845416D+00
      8 -0.135086D-02  0.986105D-01  0.678250D+00
      9 -0.450639D-02 -0.369632D-02 -0.993558D-02  0.785538D-01
     10  0.533465D-03  0.210727D-01 -0.403358D-01  0.703657D-02 -0.681581D-02
     11 -0.997111D-03 -0.494425D-01 -0.361601D-01  0.174484D-01 -0.812591D-01
     12 -0.204277D-02 -0.156270D-02  0.163320D-01  0.323317D-01 -0.363154D-02
     13 -0.465329D-03 -0.132154D+00  0.684413D-01  0.258060D-04 -0.222103D-01
     14 -0.113986D-03  0.336174D-01 -0.170893D+00 -0.779838D-03  0.810413D-02
     15  0.325649D-02  0.208358D-02 -0.889694D-02 -0.653365D-01  0.490979D-02
     16 -0.125643D-02 -0.505861D+00 -0.625580D-01  0.380429D-02  0.241587D-01
     17  0.290990D-03 -0.422337D-02 -0.109596D+00 -0.647998D-02  0.142708D+00
     18 -0.176174D-02  0.821784D-02 -0.259344D-02 -0.360635D-01 -0.722147D-02
     19 -0.331156D-03 -0.207772D-01  0.338648D-02 -0.156301D-01  0.619001D-02
     20  0.881542D-03  0.255435D-01 -0.101730D-02  0.232721D-01  0.658455D-03
     21 -0.629455D-03 -0.309601D-03  0.928473D-03  0.614161D-02 -0.210292D-02
     22  0.231536D-04  0.185692D-01  0.234110D-01 -0.439884D-03 -0.368336D-02
     23 -0.879382D-04 -0.192192D-01 -0.257537D-01  0.220453D-03  0.186898D-01
     24 -0.744147D-03 -0.565036D-03  0.464283D-04 -0.360091D-02  0.117991D-02
     25  0.240639D-03 -0.228619D-01  0.605835D-02  0.159515D-01  0.418047D-02
     26 -0.575605D-03  0.253748D-01 -0.181771D-02 -0.232352D-01  0.140109D-02
     27 -0.463094D-03  0.843409D-03 -0.579227D-03  0.658810D-02  0.367615D-02
     28 -0.625788D-03 -0.286392D-01  0.464612D-01 -0.255170D-02 -0.668665D-02
     29 -0.519364D-03  0.651520D-02 -0.184608D-01  0.127722D-02 -0.465593D-02
     30 -0.520872D-03 -0.196571D-02 -0.845865D-04  0.617318D-02 -0.289495D-02
     31 -0.484737D-02  0.111577D-01 -0.168480D-01  0.199045D-02  0.169879D-02
     32 -0.135846D-03  0.168857D-01 -0.236084D-01  0.340353D-02  0.245790D-02
     33 -0.463035D-03  0.158726D-03 -0.454176D-02 -0.158132D-02 -0.331177D-04
     34  0.112617D-02 -0.126848D-01 -0.356544D-01 -0.268014D-02 -0.190107D-02
     35  0.104075D-02 -0.178289D-02  0.898625D-02  0.731923D-03 -0.402879D-01
     36  0.326143D-02  0.119172D-02  0.170915D-02 -0.175757D-02  0.154667D-02
     37  0.391631D-03  0.667450D-03  0.155834D-02  0.166165D-02  0.111290D-02
     38  0.156149D-03 -0.186003D-02 -0.415295D-02 -0.207086D-03  0.252196D-02
     39 -0.695395D-04 -0.359056D-02  0.259044D-03 -0.911035D-03  0.249960D-02
               11            12            13            14            15 
     11  0.820812D-01
     12 -0.359864D-01 -0.603090D-01
     13 -0.108002D-01  0.863179D-03  0.562329D+00
     14  0.290205D-01  0.279817D-04  0.561078D-01  0.512337D+00
     15  0.668326D-02  0.964348D-02  0.966140D-03  0.111587D-02  0.529484D+00
     16  0.762379D-01 -0.927797D-03 -0.357770D-01  0.663529D-02 -0.520416D-02
     17 -0.284073D-01  0.208749D-01  0.248042D-01  0.875557D-02 -0.886543D-03
     18  0.200290D-01  0.477778D-01  0.921463D-03 -0.269834D-03 -0.923404D-02
     19 -0.417923D-03 -0.143447D-02 -0.132388D+00 -0.511393D-02 -0.118567D+00
     20 -0.445372D-02 -0.640691D-03 -0.470231D-02 -0.469572D-01 -0.116422D-02
     21  0.544645D-03  0.159295D-02 -0.119529D+00 -0.321266D-02 -0.221635D+00
     22  0.364305D-02  0.187326D-02 -0.120597D+00 -0.114380D+00 -0.993020D-03
     23 -0.132021D-01 -0.306271D-02 -0.119119D+00 -0.246721D+00 -0.103409D-02
     24 -0.110164D-02  0.559712D-02 -0.123788D-02 -0.194162D-02 -0.422987D-01
     25 -0.125394D-02 -0.207424D-02 -0.132875D+00 -0.776464D-02  0.120003D+00
     26 -0.390494D-02  0.569955D-03 -0.629495D-02 -0.462009D-01  0.336725D-02
     27 -0.120996D-02  0.953777D-03  0.117742D+00  0.543699D-02 -0.217901D+00
     28 -0.520732D-02 -0.225078D-02  0.590002D-03 -0.420900D-02  0.267273D-02
     29 -0.106214D-01  0.451675D-02 -0.996699D-03  0.281756D-02 -0.369539D-02
     30 -0.194807D-02 -0.949562D-02  0.200106D-02 -0.309629D-03  0.135454D-01
     31  0.949028D-03 -0.178628D-03 -0.166218D-02 -0.391040D-02  0.243909D-03
     32  0.505551D-03 -0.246433D-03 -0.371865D-02 -0.337711D-02  0.114769D-03
     33  0.352458D-03  0.675692D-04  0.168021D-04 -0.455845D-03  0.537266D-04
     34  0.651463D-01  0.485798D-02  0.215967D-02  0.174279D-02 -0.292898D-02
     35 -0.155579D-01 -0.475174D-02  0.114767D-01 -0.393570D-02  0.205036D-02
     36  0.256973D-02 -0.186370D-01  0.857659D-03 -0.376555D-04 -0.392249D-02
     37  0.625009D-03  0.182243D-02 -0.930361D-03 -0.717034D-04 -0.292182D-02
     38  0.265696D-02 -0.930705D-03 -0.401610D-03  0.272912D-03  0.211566D-02
     39 -0.766416D-03  0.204950D-02 -0.178587D-02 -0.118508D-03 -0.180699D-04
               16            17            18            19            20 
     16  0.800275D+00
     17 -0.456993D-01  0.536362D+00
     18 -0.255658D-01 -0.275782D-01  0.706077D-01
     19  0.239316D-03  0.217871D-02 -0.275287D-02  0.146480D+00
     20 -0.189581D-02 -0.486068D-02  0.218938D-02 -0.210630D-02  0.515956D-01
     21  0.270102D-02 -0.326753D-03 -0.893511D-03  0.131995D+00  0.218580D-02
     22  0.115954D-02 -0.531105D-02  0.364156D-03 -0.967917D-02 -0.173384D-01
     23 -0.582733D-02 -0.351321D-02  0.329478D-03  0.104540D-02  0.107648D-02
     24  0.120390D-03  0.725035D-03 -0.416413D-04 -0.133020D-01 -0.246704D-01
     25  0.365004D-02  0.189701D-02  0.373207D-02  0.110278D-01  0.327154D-03
     26 -0.264959D-02 -0.469901D-02 -0.229552D-02  0.224406D-03  0.101958D-02
     27 -0.343536D-02  0.338434D-03 -0.532237D-03  0.164373D-01  0.167138D-02
     28 -0.135818D+00  0.841069D-01 -0.671237D-03 -0.654551D-03  0.833062D-03
     29  0.607201D-01 -0.158973D+00  0.253924D-01  0.663488D-03 -0.124323D-04
     30  0.263129D-01 -0.540542D-02 -0.529777D-01  0.155927D-02 -0.219869D-02
     31  0.308273D-02 -0.510836D-02 -0.432101D-03 -0.154949D-03  0.161862D-03
     32  0.170811D-02 -0.286690D-02  0.266338D-03 -0.151403D-03  0.229327D-03
     33 -0.432719D-03  0.519059D-03  0.359806D-02  0.922983D-04 -0.184669D-03
     34 -0.107664D+00 -0.148382D+00  0.792355D-02 -0.235880D-02 -0.720707D-03
     35 -0.603285D-01 -0.207825D+00  0.140985D-01  0.709047D-03  0.175944D-02
     36  0.752946D-02  0.630264D-02 -0.349607D-01  0.435155D-04  0.600372D-03
     37 -0.252487D-01  0.543183D-02  0.177088D-01 -0.330943D-03  0.584750D-03
     38  0.359837D-01 -0.881555D-02 -0.269116D-01  0.142158D-03 -0.398484D-03
     39 -0.671375D-02  0.936017D-02  0.321284D-02 -0.262867D-03 -0.818421D-04
               21            22            23            24            25 
     21  0.239228D+00
     22  0.194317D-02  0.135124D+00
     23  0.915771D-03  0.120856D+00  0.281429D+00
     24 -0.567522D-04 -0.336900D-03  0.344007D-02  0.388524D-01
     25 -0.160835D-01 -0.919994D-02  0.830491D-03  0.138150D-01  0.145520D+00
     26 -0.133868D-02 -0.166444D-01  0.790468D-03  0.243590D-01 -0.658726D-03
     27 -0.234647D-01 -0.214992D-02 -0.931476D-03  0.442541D-03 -0.131761D+00
     28 -0.816260D-04  0.519988D-03  0.591856D-03 -0.945354D-04 -0.155812D-02
     29  0.403103D-03  0.396902D-03  0.123868D-02 -0.387416D-04  0.193462D-02
     30 -0.468058D-03 -0.283448D-04  0.232889D-03  0.639242D-04 -0.172016D-02
     31  0.580593D-04  0.100458D-02 -0.100661D-02 -0.103969D-03 -0.195432D-03
     32  0.802219D-04  0.996069D-03 -0.891178D-03  0.453204D-04 -0.147647D-03
     33  0.186392D-03 -0.167413D-04 -0.178579D-03  0.919637D-03 -0.119190D-03
     34  0.627608D-03 -0.885321D-02 -0.356435D-02  0.469949D-03 -0.116387D-02
     35 -0.119639D-02  0.176050D-02  0.659700D-02 -0.394311D-03 -0.764019D-03
     36  0.983874D-05 -0.304071D-04  0.276957D-03 -0.381876D-03  0.266729D-03
     37  0.197411D-03  0.919687D-04 -0.128602D-03  0.564039D-04  0.544285D-03
     38 -0.109844D-03 -0.199008D-03 -0.379258D-03 -0.153052D-05 -0.337451D-03
     39  0.889759D-04  0.872137D-04 -0.400475D-03  0.448620D-04 -0.412401D-04
               26            27            28            29            30 
     26  0.506727D-01
     27 -0.433945D-02  0.235015D+00
     28  0.183040D-02  0.203022D-03  0.333282D+00
     29 -0.716583D-03 -0.362308D-03 -0.122341D+00  0.249420D+00
     30  0.223721D-02 -0.221462D-03 -0.225698D+00 -0.145424D-01  0.320400D+00
     31  0.278615D-03 -0.833544D-04 -0.735104D-03  0.376035D-02  0.323453D-03
     32  0.226013D-03 -0.405786D-04  0.183297D-02  0.158091D-02  0.253785D-03
     33  0.100084D-03  0.201421D-03 -0.138733D-03 -0.181748D-02 -0.249637D-02
     34 -0.106520D-02 -0.802814D-03  0.172162D-01  0.255031D-01  0.102801D-02
     35  0.207885D-02  0.153995D-02 -0.761604D-02 -0.479298D-01  0.710834D-02
     36 -0.551511D-03 -0.139089D-04  0.233496D-03  0.459293D-02  0.965636D-02
     37 -0.544025D-03 -0.921370D-04 -0.177997D+00  0.299749D-01  0.199948D+00
     38  0.152893D-03 -0.841437D-04  0.566257D-02 -0.276497D-01  0.156172D-01
     39  0.180616D-03 -0.179215D-03  0.229970D+00 -0.179787D-01 -0.280060D+00
               31            32            33            34            35 
     31  0.197121D+00
     32 -0.194014D+00  0.357824D+00
     33  0.228594D-01 -0.368879D-01  0.960122D-02
     34 -0.159557D-02 -0.884605D-04  0.192866D-03  0.120312D+00
     35 -0.269099D-04  0.133390D-02  0.335388D-03  0.106653D+00  0.267870D+00
     36 -0.899993D-04 -0.341245D-03 -0.168210D-02 -0.104655D-01 -0.167099D-01
     37  0.615087D-04 -0.837144D-04  0.122381D-02  0.918281D-03 -0.171203D-02
     38  0.564879D-03  0.674642D-03  0.879326D-03 -0.460184D-02  0.533153D-03
     39  0.419869D-04 -0.148348D-03  0.117636D-03 -0.135219D-02 -0.573780D-03
               36            37            38            39 
     36  0.415309D-01
     37 -0.122422D-02  0.201164D+00
     38  0.179641D-02 -0.365731D-01  0.367811D-01
     39 -0.138875D-02 -0.218692D+00  0.915482D-02  0.277418D+00
 FormGI is forming the generalized inverse of G from B-inverse, IUseBI=4.
 Leave Link  716 at Thu Apr 14 11:34:02 2016, MaxMem=    33554432 cpu:         0.0
 (Enter /usr/local/gau/g09/l103.exe)

 GradGradGradGradGradGradGradGradGradGradGradGradGradGradGradGradGradGrad
 Berny optimization.
 Red2BG is reusing G-inverse.
 Internal  Forces:  Max     0.095247320 RMS     0.026457600
 Search for a saddle point.
 Step number   1 out of a maximum of   60
 All quantities printed in internal units (Hartrees-Bohrs-Radians)
 Swapping is turned off.
 Second derivative matrix not updated -- analytic derivatives used.
 ITU=  0
     Eigenvalues ---   -0.13582  -0.05320  -0.00415  -0.00077   0.00206
     Eigenvalues ---    0.00635   0.01171   0.02097   0.03482   0.05872
     Eigenvalues ---    0.06306   0.10294   0.11401   0.12648   0.13409
     Eigenvalues ---    0.14140   0.15854   0.17876   0.19623   0.20531
     Eigenvalues ---    0.22387   0.27601   0.32818   0.33328   0.33660
     Eigenvalues ---    0.35352   0.37139   0.42223   0.46606   0.48390
     Eigenvalues ---    0.49094   0.49799   0.71012
 Eigenvectors required to have negative eigenvalues:
                          A16       A19       A13       D14       D11
   1                   -0.58533   0.45080   0.39323  -0.25318  -0.24923
                          A20       R6        A15       A17       R4
   1                   -0.21878   0.21672  -0.18891   0.13080  -0.07064
 Eigenvalue     2 is  -5.32D-02 should be greater than     0.000000 Eigenvector:
                          D14       D11       A20       A16       A19
   1                    0.55184   0.51853   0.46263  -0.25537   0.22560
                          A13       R6        A15       D15       D6
   1                    0.16636   0.10810  -0.09553   0.08921   0.07674
 Eigenvalue     3 is  -4.15D-03 should be greater than     0.000000 Eigenvector:
                          D1        D2        D13       D9        D4
   1                   -0.71440  -0.66064  -0.11898  -0.07366   0.06694
                          D16       D11       D17       D10       D12
   1                   -0.06185  -0.06148  -0.05865  -0.05742  -0.05639
 Eigenvalue     4 is  -7.67D-04 should be greater than     0.000000 Eigenvector:
                          D9        D6        D8        D10       D5
   1                    0.47197   0.42092   0.40115   0.39856   0.35010
                          D7        D2        D3        D14       A20
   1                    0.34751  -0.08636   0.07346  -0.06979  -0.06573
 RFO step:  Lambda0=7.065084573D-02 Lambda=-1.12812886D-01.
 Linear search not attempted -- option 19 set.
 Maximum step size (   0.300) exceeded in Quadratic search.
    -- Step size scaled by   0.495
 Iteration  1 RMS(Cart)=  0.07320978 RMS(Int)=  0.02039649
 Iteration  2 RMS(Cart)=  0.02453754 RMS(Int)=  0.00328443
 Iteration  3 RMS(Cart)=  0.00090152 RMS(Int)=  0.00316795
 Iteration  4 RMS(Cart)=  0.00000320 RMS(Int)=  0.00316795
 Iteration  5 RMS(Cart)=  0.00000002 RMS(Int)=  0.00316795
 ITry= 1 IFail=0 DXMaxC= 5.14D-01 DCOld= 1.00D+10 DXMaxT= 3.00D-01 DXLimC= 3.00D+00 Rises=F
 Variable       Old X    -DE/DX   Delta X   Delta X   Delta X     New X
                                 (Linear)    (Quad)   (Total)
    R1        1.89636  -0.00002   0.00000   0.00142   0.00142   1.89778
    R2        2.63279   0.00865   0.00000   0.00611   0.00611   2.63890
    R3        1.89992  -0.00077   0.00000   0.00101   0.00101   1.90093
    R4        2.84087   0.02986   0.00000   0.03946   0.03946   2.88033
    R5        2.54221   0.05767   0.00000   0.04125   0.04125   2.58346
    R6        2.42092   0.04938   0.00000   0.02164   0.02164   2.44256
    R7        2.07561  -0.00160   0.00000  -0.00489  -0.00489   2.07072
    R8        2.06050   0.00760   0.00000   0.00866   0.00866   2.06916
    R9        2.07718  -0.00125   0.00000   0.00173   0.00173   2.07890
   R10        2.66481  -0.00803   0.00000   0.00100   0.00100   2.66581
   R11        2.64885  -0.03808   0.00000  -0.06313  -0.06313   2.58572
   R12        1.85468  -0.00126   0.00000  -0.00085  -0.00085   1.85383
    A1        2.10258   0.00154   0.00000  -0.01246  -0.01746   2.08511
    A2        2.07788   0.00099   0.00000  -0.00186  -0.00733   2.07055
    A3        2.08053  -0.00278   0.00000  -0.02235  -0.02738   2.05316
    A4        2.03345  -0.01970   0.00000  -0.00972  -0.00972   2.02373
    A5        2.10966  -0.01072   0.00000   0.00621   0.00621   2.11587
    A6        2.14004   0.03042   0.00000   0.00352   0.00352   2.14356
    A7        1.93153  -0.00460   0.00000  -0.01287  -0.01286   1.91867
    A8        1.93081   0.02321   0.00000   0.01897   0.01902   1.94983
    A9        1.93804  -0.00496   0.00000  -0.00784  -0.00783   1.93021
   A10        1.88943  -0.00806   0.00000   0.00264   0.00268   1.89211
   A11        1.87473   0.00340   0.00000   0.01419   0.01416   1.88890
   A12        1.89759  -0.00982   0.00000  -0.01515  -0.01510   1.88249
   A13        1.09580   0.09444   0.00000  -0.01700  -0.00991   1.08588
   A14        2.10339  -0.03828   0.00000  -0.06241  -0.06249   2.04091
   A15        2.16418  -0.00098   0.00000   0.03745   0.03037   2.19456
   A16        1.06849  -0.09525   0.00000   0.05799   0.07256   1.14105
   A17        2.01544   0.03933   0.00000   0.02534   0.03228   2.04772
   A18        1.92628  -0.00353   0.00000   0.00168   0.00168   1.92796
   A19        3.19919   0.05616   0.00000  -0.07941  -0.07240   3.12679
   A20        3.17759   0.00827   0.00000   0.24914   0.24815   3.42574
    D1        0.10954   0.00012   0.00000   0.16378   0.16283   0.27237
    D2       -3.04060   0.00146   0.00000   0.16523   0.16427  -2.87633
    D3        3.02427  -0.00103   0.00000  -0.02113  -0.02017   3.00410
    D4       -0.12587   0.00031   0.00000  -0.01968  -0.01872  -0.14460
    D5        1.03078  -0.00039   0.00000  -0.02742  -0.02740   1.00339
    D6        3.12490   0.00167   0.00000  -0.02013  -0.02014   3.10476
    D7       -1.04963   0.00156   0.00000  -0.03173  -0.03177  -1.08139
    D8       -2.10210  -0.00154   0.00000  -0.02891  -0.02888  -2.13098
    D9       -0.00799   0.00052   0.00000  -0.02162  -0.02162  -0.02960
   D10        2.10067   0.00042   0.00000  -0.03322  -0.03325   2.06743
   D11       -3.01499   0.00917   0.00000   0.28973   0.28860  -2.72639
   D12        0.09061   0.00090   0.00000   0.04059   0.04045   0.13105
   D13       -3.03040  -0.00356   0.00000   0.01657   0.01783  -3.01257
   D14        0.11752   0.01033   0.00000   0.29120   0.29008   0.40760
   D15       -3.06006   0.00206   0.00000   0.04206   0.04193  -3.01814
   D16        0.10211  -0.00240   0.00000   0.01804   0.01931   0.12142
   D17       -2.14441  -0.00520   0.00000  -0.04040  -0.03962  -2.18404
   D18        0.97827  -0.00147   0.00000  -0.01809  -0.01886   0.95941
         Item               Value     Threshold  Converged?
 Maximum Force            0.095247     0.000450     NO 
 RMS     Force            0.026458     0.000300     NO 
 Maximum Displacement     0.513554     0.001800     NO 
 RMS     Displacement     0.092147     0.001200     NO 
 Predicted change in Energy=-1.466338D-02
 Lowest energy point so far.  Saving SCF results.
 GradGradGradGradGradGradGradGradGradGradGradGradGradGradGradGradGradGrad

 Leave Link  103 at Thu Apr 14 11:34:02 2016, MaxMem=    33554432 cpu:         0.0
 (Enter /usr/local/gau/g09/l202.exe)
                          Input orientation:                          
 ---------------------------------------------------------------------
 Center     Atomic      Atomic             Coordinates (Angstroms)
 Number     Number       Type             X           Y           Z
 ---------------------------------------------------------------------
      1          7           0        1.094364    1.305185    0.102758
      2          1           0        2.073123    1.389500   -0.105725
      3          6           0        0.479921    0.053838    0.021213
      4          1           0       -0.195809   -1.080430    0.407399
      5          6           0        1.416746   -1.147705   -0.021850
      6          6           0       -0.881540   -0.066733   -0.008383
      7          1           0        2.062867   -1.149519    0.863167
      8          1           0        0.863380   -2.092173   -0.047944
      9          1           0        2.057225   -1.107154   -0.915372
     10          8           0       -1.626487    1.126240   -0.117493
     11          1           0        0.510057    2.118821    0.010722
     12          8           0       -1.581512   -1.240666    0.056205
     13          1           0       -2.277734    1.191973    0.613209
 ---------------------------------------------------------------------
                    Distance matrix (angstroms):
                    1          2          3          4          5
     1  N    0.000000
     2  H    1.004263   0.000000
     3  C    1.396446   2.082883   0.000000
     4  H    2.729196   3.392920   1.375614   0.000000
     5  C    2.477121   2.622074   1.524205   1.670064   0.000000
     6  C    2.408051   3.295470   1.367109   1.292549   2.539842
     7  H    2.746232   2.717623   2.159322   2.305237   1.095779
     8  H    3.408534   3.686307   2.181097   1.533897   1.094950
     9  H    2.789816   2.624702   2.170940   2.612776   1.100109
    10  O    2.735610   3.708984   2.367750   2.681742   3.800163
    11  H    1.005927   1.728769   2.065230   3.300122   3.390182
    12  O    3.693757   4.505592   2.434434   1.438467   3.000715
    13  H    3.412392   4.414277   3.041458   3.088783   4.418888
                    6          7          8          9         10
     6  C    0.000000
     7  H    3.256003   0.000000
     8  H    2.673708   1.776933   0.000000
     9  H    3.246759   1.779053   1.774249   0.000000
    10  O    1.410686   4.444334   4.069700   4.381141   0.000000
    11  H    2.591053   3.717516   4.226198   3.695713   2.359338
    12  O    1.368302   3.733765   2.591025   3.768581   2.373697
    13  H    1.979918   4.938206   4.592312   5.139495   0.981004
                   11         12         13
    11  H    0.000000
    12  O    3.957636   0.000000
    13  H    2.998969   2.590889   0.000000
 Stoichiometry    C3H7NO2
 Framework group  C1[X(C3H7NO2)]
 Deg. of freedom    33
 Full point group                 C1      NOp   1
 RotChk:  IX=0 Diff= 3.73D-02
 Largest Abelian subgroup         C1      NOp   1
 Largest concise Abelian subgroup C1      NOp   1
                         Standard orientation:                         
 ---------------------------------------------------------------------
 Center     Atomic      Atomic             Coordinates (Angstroms)
 Number     Number       Type             X           Y           Z
 ---------------------------------------------------------------------
      1          7           0        1.083704    1.424015    0.090313
      2          1           0        2.047226    1.618286   -0.115668
      3          6           0        0.613294    0.112161    0.001913
      4          1           0        0.068099   -1.092371    0.381623
      5          6           0        1.678767   -0.976793   -0.044411
      6          6           0       -0.726071   -0.159861   -0.031174
      7          1           0        2.319557   -0.910388    0.841993
      8          1           0        1.234615   -1.977119   -0.075873
      9          1           0        2.312174   -0.860694   -0.936351
     10          8           0       -1.599659    0.942752   -0.136641
     11          1           0        0.412170    2.167574    0.000595
     12          8           0       -1.290381   -1.405034    0.026715
     13          1           0       -2.255388    0.931817    0.592926
 ---------------------------------------------------------------------
 Rotational constants (GHZ):      4.8964954      3.3008667      2.0117325
 Leave Link  202 at Thu Apr 14 11:34:02 2016, MaxMem=    33554432 cpu:         0.0
 (Enter /usr/local/gau/g09/l301.exe)
 Standard basis: 6-31G (6D, 7F)
 Ernie: Thresh=  0.10000D-02 Tol=  0.10000D-05 Strict=F.
 There are    68 symmetry adapted cartesian basis functions of A   symmetry.
 There are    68 symmetry adapted basis functions of A   symmetry.
    68 basis functions,   160 primitive gaussians,    68 cartesian basis functions
    24 alpha electrons       24 beta electrons
       nuclear repulsion energy       247.5767330477 Hartrees.
 IExCor=  402 DFT=T Ex+Corr=B3LYP ExCW=0 ScaHFX=  0.200000
 ScaDFX=  0.800000  0.720000  1.000000  0.810000 ScalE2=  1.000000  1.000000
 IRadAn=      0 IRanWt=     -1 IRanGd=            0 ICorTp=0 IEmpDi=  4
 NAtoms=   13 NActive=   13 NUniq=   13 SFac= 1.00D+00 NAtFMM=   60 NAOKFM=F Big=F
 Integral buffers will be    131072 words long.
 Raffenetti 2 integral format.
 Two-electron integral symmetry is turned on.
 Leave Link  301 at Thu Apr 14 11:34:03 2016, MaxMem=    33554432 cpu:         0.0
 (Enter /usr/local/gau/g09/l302.exe)
 NPDir=0 NMtPBC=     1 NCelOv=     1 NCel=       1 NClECP=     1 NCelD=      1
         NCelK=      1 NCelE2=     1 NClLst=     1 CellRange=     0.0.
 One-electron integrals computed using PRISM.
 NBasis=    68 RedAO= T EigKep=  2.99D-03  NBF=    68
 NBsUse=    68 1.00D-06 EigRej= -1.00D+00 NBFU=    68
 Precomputing XC quadrature grid using
 IXCGrd= 4 IRadAn=           0 IRanWt=          -1 IRanGd=           0 AccXCQ= 0.00D+00.
 Generated NRdTot=       0 NPtTot=           0 NUsed=           0 NTot=          32
 NSgBfM=    68    68    68    68    68 MxSgAt=    13 MxSgA2=    13.
 Leave Link  302 at Thu Apr 14 11:34:04 2016, MaxMem=    33554432 cpu:         0.2
 (Enter /usr/local/gau/g09/l303.exe)
 DipDrv:  MaxL=1.
 Leave Link  303 at Thu Apr 14 11:34:04 2016, MaxMem=    33554432 cpu:         0.0
 (Enter /usr/local/gau/g09/l401.exe)
 Initial guess from the checkpoint file:  "Ala-S-opt-freq-tsa3-6-31g.chk"
 B after Tr=     0.000000    0.000000    0.000000
         Rot=    0.999993    0.000502    0.000154   -0.003778 Ang=   0.44 deg.
 Guess basis will be translated and rotated to current coordinates.
 JPrj=2 DoOrth=T DoCkMO=T.
 Generating alternative initial guess.
 ExpMin= 1.61D-01 ExpMax= 5.48D+03 ExpMxC= 8.25D+02 IAcc=1 IRadAn=         1 AccDes= 0.00D+00
 Harris functional with IExCor=  402 and IRadAn=       1 diagonalized for initial guess.
 HarFok:  IExCor=  402 AccDes= 0.00D+00 IRadAn=         1 IDoV= 1 UseB2=F ITyADJ=14
 ICtDFT=  3500011 ScaDFX=  1.000000  1.000000  1.000000  1.000000
 FoFCou: FMM=F IPFlag=           0 FMFlag=      100000 FMFlg1=           0
         NFxFlg=           0 DoJE=T BraDBF=F KetDBF=T FulRan=T
         wScrn=  0.000000 ICntrl=     500 IOpCl=  0 I1Cent=   200000004 NGrid=           0
         NMat0=    1 NMatS0=      1 NMatT0=    0 NMatD0=    1 NMtDS0=    0 NMtDT0=    0
 Petite list used in FoFCou.
 Harris En= -323.495267693755    
 Leave Link  401 at Thu Apr 14 11:34:06 2016, MaxMem=    33554432 cpu:         0.5
 (Enter /usr/local/gau/g09/l502.exe)
 Closed shell SCF:
 Using DIIS extrapolation, IDIIS=  1040.
 Integral symmetry usage will be decided dynamically.
 Keep R1 ints in memory in canonical form, NReq=3676491.
 IVT=       33364 IEndB=       33364 NGot=    33554432 MDV=    30768038
 LenX=    30768038 LenY=    30762973
 Requested convergence on RMS density matrix=1.00D-08 within 128 cycles.
 Requested convergence on MAX density matrix=1.00D-06.
 Requested convergence on             energy=1.00D-06.
 No special actions if energy rises.
 FoFCou: FMM=F IPFlag=           0 FMFlag=           0 FMFlg1=           0
         NFxFlg=           0 DoJE=F BraDBF=F KetDBF=F FulRan=T
         wScrn=  0.000000 ICntrl=     600 IOpCl=  0 I1Cent=           0 NGrid=           0
         NMat0=    1 NMatS0=   2346 NMatT0=    0 NMatD0=    1 NMtDS0=    0 NMtDT0=    0
 Symmetry not used in FoFCou.
 Integral accuracy reduced to 1.0D-05 until final iterations.

 Cycle   1  Pass 0  IDiag  1:
 E= -323.418920205464    
 DIIS: error= 1.11D-02 at cycle   1 NSaved=   1.
 NSaved= 1 IEnMin= 1 EnMin= -323.418920205464     IErMin= 1 ErrMin= 1.11D-02
 ErrMax= 1.11D-02  0.00D+00 EMaxC= 1.00D-01 BMatC= 9.84D-03 BMatP= 9.84D-03
 IDIUse=3 WtCom= 8.89D-01 WtEn= 1.11D-01
 Coeff-Com:  0.100D+01
 Coeff-En:   0.100D+01
 Coeff:      0.100D+01
 Recover alternate guess density for next cycle.
 RMSDP=9.52D-03 MaxDP=1.10D-01              OVMax= 0.00D+00

 Cycle   2  Pass 0  IDiag  1:
 E= -323.253713968362     Delta-E=        0.165206237102 Rises=F Damp=F
 Switch densities from cycles 1 and 2 for lowest energy.
 DIIS: error= 3.57D-02 at cycle   2 NSaved=   2.
 NSaved= 2 IEnMin= 1 EnMin= -323.418920205464     IErMin= 1 ErrMin= 1.11D-02
 ErrMax= 3.57D-02  0.00D+00 EMaxC= 1.00D+00 BMatC= 2.12D-01 BMatP= 9.84D-03
 IDIUse=1 WtCom= 1.00D+00 WtEn= 0.00D+00
 Coeff-Com:  0.963D+00 0.370D-01
 Coeff:      0.963D+00 0.370D-01
 Gap=     0.188 Goal=   None    Shift=    0.000
 RMSDP=5.21D-03 MaxDP=5.84D-02 DE= 1.65D-01 OVMax= 8.62D-02

 Cycle   3  Pass 0  IDiag  1:
 E= -323.443235278711     Delta-E=       -0.189521310349 Rises=F Damp=F
 DIIS: error= 3.31D-03 at cycle   3 NSaved=   3.
 NSaved= 3 IEnMin= 3 EnMin= -323.443235278711     IErMin= 3 ErrMin= 3.31D-03
 ErrMax= 3.31D-03  0.00D+00 EMaxC= 1.00D+00 BMatC= 1.19D-03 BMatP= 9.84D-03
 IDIUse=1 WtCom= 1.00D+00 WtEn= 0.00D+00
 Coeff-Com:  0.370D-01 0.408D-01 0.922D+00
 Coeff:      0.370D-01 0.408D-01 0.922D+00
 Gap=     0.189 Goal=   None    Shift=    0.000
 RMSDP=1.53D-03 MaxDP=1.46D-02 DE=-1.90D-01 OVMax= 3.22D-02

 Cycle   4  Pass 0  IDiag  1:
 E= -323.441215567095     Delta-E=        0.002019711616 Rises=F Damp=F
 DIIS: error= 8.01D-03 at cycle   4 NSaved=   4.
 NSaved= 4 IEnMin= 3 EnMin= -323.443235278711     IErMin= 3 ErrMin= 3.31D-03
 ErrMax= 8.01D-03  0.00D+00 EMaxC= 1.00D+00 BMatC= 3.97D-03 BMatP= 1.19D-03
 IDIUse=1 WtCom= 1.00D+00 WtEn= 0.00D+00
 Coeff-Com: -0.491D-01 0.363D-01 0.697D+00 0.316D+00
 Coeff:     -0.491D-01 0.363D-01 0.697D+00 0.316D+00
 Gap=     0.188 Goal=   None    Shift=    0.000
 RMSDP=1.10D-03 MaxDP=1.34D-02 DE= 2.02D-03 OVMax= 2.28D-02

 Cycle   5  Pass 0  IDiag  1:
 E= -323.444618858977     Delta-E=       -0.003403291881 Rises=F Damp=F
 DIIS: error= 1.00D-03 at cycle   5 NSaved=   5.
 NSaved= 5 IEnMin= 5 EnMin= -323.444618858977     IErMin= 5 ErrMin= 1.00D-03
 ErrMax= 1.00D-03  0.00D+00 EMaxC= 1.00D+00 BMatC= 2.32D-05 BMatP= 1.19D-03
 IDIUse=1 WtCom= 1.00D+00 WtEn= 0.00D+00
 Coeff-Com: -0.172D-01 0.104D-01 0.204D+00 0.118D+00 0.685D+00
 Coeff:     -0.172D-01 0.104D-01 0.204D+00 0.118D+00 0.685D+00
 Gap=     0.189 Goal=   None    Shift=    0.000
 RMSDP=1.86D-04 MaxDP=2.26D-03 DE=-3.40D-03 OVMax= 5.35D-03

 Cycle   6  Pass 0  IDiag  1:
 E= -323.444634118404     Delta-E=       -0.000015259427 Rises=F Damp=F
 DIIS: error= 5.34D-04 at cycle   6 NSaved=   6.
 NSaved= 6 IEnMin= 6 EnMin= -323.444634118404     IErMin= 6 ErrMin= 5.34D-04
 ErrMax= 5.34D-04  0.00D+00 EMaxC= 1.00D+00 BMatC= 1.57D-05 BMatP= 2.32D-05
 IDIUse=1 WtCom= 1.00D+00 WtEn= 0.00D+00
 Coeff-Com: -0.212D-02-0.549D-03-0.342D-02 0.171D-01 0.484D+00 0.505D+00
 Coeff:     -0.212D-02-0.549D-03-0.342D-02 0.171D-01 0.484D+00 0.505D+00
 Gap=     0.188 Goal=   None    Shift=    0.000
 RMSDP=7.27D-05 MaxDP=7.07D-04 DE=-1.53D-05 OVMax= 1.65D-03

 Cycle   7  Pass 0  IDiag  1:
 E= -323.444649298761     Delta-E=       -0.000015180357 Rises=F Damp=F
 DIIS: error= 5.48D-05 at cycle   7 NSaved=   7.
 NSaved= 7 IEnMin= 7 EnMin= -323.444649298761     IErMin= 7 ErrMin= 5.48D-05
 ErrMax= 5.48D-05  0.00D+00 EMaxC= 1.00D+00 BMatC= 2.96D-07 BMatP= 1.57D-05
 IDIUse=1 WtCom= 1.00D+00 WtEn= 0.00D+00
 Coeff-Com:  0.667D-03-0.118D-02-0.186D-01-0.990D-03 0.143D+00 0.159D+00
 Coeff-Com:  0.718D+00
 Coeff:      0.667D-03-0.118D-02-0.186D-01-0.990D-03 0.143D+00 0.159D+00
 Coeff:      0.718D+00
 Gap=     0.188 Goal=   None    Shift=    0.000
 RMSDP=2.14D-05 MaxDP=1.98D-04 DE=-1.52D-05 OVMax= 4.19D-04

 Cycle   8  Pass 0  IDiag  1:
 E= -323.444649668898     Delta-E=       -0.000000370137 Rises=F Damp=F
 DIIS: error= 2.84D-05 at cycle   8 NSaved=   8.
 NSaved= 8 IEnMin= 8 EnMin= -323.444649668898     IErMin= 8 ErrMin= 2.84D-05
 ErrMax= 2.84D-05  0.00D+00 EMaxC= 1.00D+00 BMatC= 8.69D-08 BMatP= 2.96D-07
 IDIUse=1 WtCom= 1.00D+00 WtEn= 0.00D+00
 Coeff-Com:  0.514D-03-0.362D-03-0.764D-02-0.218D-02-0.645D-02-0.164D-01
 Coeff-Com:  0.362D+00 0.670D+00
 Coeff:      0.514D-03-0.362D-03-0.764D-02-0.218D-02-0.645D-02-0.164D-01
 Coeff:      0.362D+00 0.670D+00
 Gap=     0.188 Goal=   None    Shift=    0.000
 RMSDP=8.59D-06 MaxDP=8.92D-05 DE=-3.70D-07 OVMax= 1.90D-04

 Initial convergence to 1.0D-05 achieved.  Increase integral accuracy.
 Cycle   9  Pass 1  IDiag  1:
 E= -323.444638340918     Delta-E=        0.000011327980 Rises=F Damp=F
 DIIS: error= 8.51D-06 at cycle   1 NSaved=   1.
 NSaved= 1 IEnMin= 1 EnMin= -323.444638340918     IErMin= 1 ErrMin= 8.51D-06
 ErrMax= 8.51D-06  0.00D+00 EMaxC= 1.00D+00 BMatC= 1.08D-08 BMatP= 1.08D-08
 IDIUse=1 WtCom= 1.00D+00 WtEn= 0.00D+00
 Coeff-Com:  0.100D+01
 Coeff:      0.100D+01
 Gap=     0.188 Goal=   None    Shift=    0.000
 RMSDP=8.59D-06 MaxDP=8.92D-05 DE= 1.13D-05 OVMax= 4.05D-05

 Cycle  10  Pass 1  IDiag  1:
 E= -323.444638356512     Delta-E=       -0.000000015594 Rises=F Damp=F
 DIIS: error= 5.81D-06 at cycle   2 NSaved=   2.
 NSaved= 2 IEnMin= 2 EnMin= -323.444638356512     IErMin= 2 ErrMin= 5.81D-06
 ErrMax= 5.81D-06  0.00D+00 EMaxC= 1.00D+00 BMatC= 3.18D-09 BMatP= 1.08D-08
 IDIUse=1 WtCom= 1.00D+00 WtEn= 0.00D+00
 Coeff-Com:  0.276D+00 0.724D+00
 Coeff:      0.276D+00 0.724D+00
 Gap=     0.188 Goal=   None    Shift=    0.000
 RMSDP=1.80D-06 MaxDP=2.26D-05 DE=-1.56D-08 OVMax= 2.62D-05

 Cycle  11  Pass 1  IDiag  1:
 E= -323.444638355916     Delta-E=        0.000000000597 Rises=F Damp=F
 DIIS: error= 6.18D-06 at cycle   3 NSaved=   3.
 NSaved= 3 IEnMin= 2 EnMin= -323.444638356512     IErMin= 2 ErrMin= 5.81D-06
 ErrMax= 6.18D-06  0.00D+00 EMaxC= 1.00D+00 BMatC= 4.12D-09 BMatP= 3.18D-09
 IDIUse=1 WtCom= 1.00D+00 WtEn= 0.00D+00
 Coeff-Com: -0.125D-02 0.534D+00 0.467D+00
 Coeff:     -0.125D-02 0.534D+00 0.467D+00
 Gap=     0.188 Goal=   None    Shift=    0.000
 RMSDP=1.29D-06 MaxDP=1.89D-05 DE= 5.97D-10 OVMax= 2.26D-05

 Cycle  12  Pass 1  IDiag  1:
 E= -323.444638358924     Delta-E=       -0.000000003008 Rises=F Damp=F
 DIIS: error= 3.59D-06 at cycle   4 NSaved=   4.
 NSaved= 4 IEnMin= 4 EnMin= -323.444638358924     IErMin= 4 ErrMin= 3.59D-06
 ErrMax= 3.59D-06  0.00D+00 EMaxC= 1.00D+00 BMatC= 6.08D-10 BMatP= 3.18D-09
 IDIUse=1 WtCom= 1.00D+00 WtEn= 0.00D+00
 Coeff-Com: -0.233D-01 0.331D+00 0.343D+00 0.349D+00
 Coeff:     -0.233D-01 0.331D+00 0.343D+00 0.349D+00
 Gap=     0.188 Goal=   None    Shift=    0.000
 RMSDP=4.20D-07 MaxDP=4.94D-06 DE=-3.01D-09 OVMax= 9.95D-06

 Cycle  13  Pass 1  IDiag  1:
 E= -323.444638359465     Delta-E=       -0.000000000541 Rises=F Damp=F
 DIIS: error= 1.98D-07 at cycle   5 NSaved=   5.
 NSaved= 5 IEnMin= 5 EnMin= -323.444638359465     IErMin= 5 ErrMin= 1.98D-07
 ErrMax= 1.98D-07  0.00D+00 EMaxC= 1.00D+00 BMatC= 3.28D-12 BMatP= 6.08D-10
 IDIUse=1 WtCom= 1.00D+00 WtEn= 0.00D+00
 Coeff-Com: -0.944D-02 0.109D+00 0.116D+00 0.132D+00 0.652D+00
 Coeff:     -0.944D-02 0.109D+00 0.116D+00 0.132D+00 0.652D+00
 Gap=     0.188 Goal=   None    Shift=    0.000
 RMSDP=4.96D-08 MaxDP=6.00D-07 DE=-5.41D-10 OVMax= 1.08D-06

 Cycle  14  Pass 1  IDiag  1:
[...]
    A7        1.96056   0.00000   0.00000  -0.00001  -0.00001   1.96055
    A8        1.91323   0.00001   0.00000   0.00010   0.00010   1.91333
    A9        1.92096   0.00000   0.00000  -0.00002  -0.00002   1.92093
   A10        1.90337  -0.00001   0.00000  -0.00005  -0.00005   1.90332
   A11        1.87474   0.00000   0.00000  -0.00001  -0.00001   1.87473
   A12        1.88932  -0.00001   0.00000  -0.00001  -0.00001   1.88931
   A13        1.90801   0.00002   0.00000   0.00020   0.00020   1.90821
   A14        1.99382  -0.00001   0.00000  -0.00008  -0.00008   1.99374
   A15        2.19822   0.00002   0.00000   0.00012   0.00012   2.19834
   A16        1.05511  -0.00001   0.00000   0.00007   0.00007   1.05517
   A17        2.02189  -0.00001   0.00000  -0.00007  -0.00007   2.02182
   A18        1.87360   0.00000   0.00000  -0.00003  -0.00003   1.87357
   A19        3.90183   0.00000   0.00000   0.00013   0.00013   3.90196
   A20        3.90022   0.00000   0.00000   0.00012   0.00012   3.90033
    D1       -0.16844   0.00000   0.00000  -0.00038  -0.00038  -0.16882
    D2        2.89804   0.00000   0.00000  -0.00041  -0.00041   2.89764
    D3        3.03924   0.00000   0.00000   0.00027   0.00027   3.03951
    D4       -0.17747   0.00000   0.00000   0.00024   0.00024  -0.17722
    D5        1.03155   0.00000   0.00000   0.00037   0.00037   1.03193
    D6       -3.13265   0.00000   0.00000   0.00037   0.00037  -3.13228
    D7       -1.05648   0.00000   0.00000   0.00041   0.00041  -1.05607
    D8       -2.03325   0.00000   0.00000   0.00041   0.00041  -2.03284
    D9        0.08574   0.00000   0.00000   0.00041   0.00041   0.08614
   D10        2.16191   0.00000   0.00000   0.00045   0.00045   2.16235
   D11       -2.20941   0.00000   0.00000  -0.00011  -0.00011  -2.20952
   D12        0.17356   0.00000   0.00000  -0.00022  -0.00022   0.17334
   D13        2.90498   0.00000   0.00000  -0.00033  -0.00033   2.90465
   D14        0.85557   0.00000   0.00000  -0.00014  -0.00014   0.85543
   D15       -3.04465   0.00000   0.00000  -0.00026  -0.00026  -3.04491
   D16       -0.31323   0.00000   0.00000  -0.00036  -0.00036  -0.31359
   D17        2.86895   0.00000   0.00000  -0.00117  -0.00117   2.86779
   D18        0.09423  -0.00001   0.00000  -0.00112  -0.00112   0.09311
         Item               Value     Threshold  Converged?
 Maximum Force            0.000031     0.000450     YES
 RMS     Force            0.000010     0.000300     YES
 Maximum Displacement     0.000915     0.001800     YES
 RMS     Displacement     0.000295     0.001200     YES
 Predicted change in Energy=-1.932132D-08
 Optimization completed.
    -- Stationary point found.
                           ----------------------------
                           !   Optimized Parameters   !
                           ! (Angstroms and Degrees)  !
 --------------------------                            --------------------------
 ! Name  Definition              Value          Derivative Info.                !
 --------------------------------------------------------------------------------
 ! R1    R(1,2)                  1.0062         -DE/DX =    0.0                 !
 ! R2    R(1,3)                  1.3624         -DE/DX =    0.0                 !
 ! R3    R(1,11)                 1.0091         -DE/DX =    0.0                 !
 ! R4    R(3,5)                  1.497          -DE/DX =    0.0                 !
 ! R5    R(3,6)                  1.3981         -DE/DX =    0.0                 !
 ! R6    R(4,6)                  1.2133         -DE/DX =    0.0                 !
 ! R7    R(5,7)                  1.0993         -DE/DX =    0.0                 !
 ! R8    R(5,8)                  1.0913         -DE/DX =    0.0                 !
 ! R9    R(5,9)                  1.0979         -DE/DX =    0.0                 !
 ! R10   R(6,10)                 1.4204         -DE/DX =    0.0                 !
 ! R11   R(6,12)                 1.4542         -DE/DX =    0.0                 !
 ! R12   R(10,13)                0.9773         -DE/DX =    0.0                 !
 ! A1    A(2,1,3)              121.8844         -DE/DX =    0.0                 !
 ! A2    A(2,1,11)             119.4286         -DE/DX =    0.0                 !
 ! A3    A(3,1,11)             118.5799         -DE/DX =    0.0                 !
 ! A4    A(1,3,5)              119.3897         -DE/DX =    0.0                 !
 ! A5    A(1,3,6)              119.147          -DE/DX =    0.0                 !
 ! A6    A(5,3,6)              121.3192         -DE/DX =    0.0                 !
 ! A7    A(3,5,7)              112.3319         -DE/DX =    0.0                 !
 ! A8    A(3,5,8)              109.6199         -DE/DX =    0.0                 !
 ! A9    A(3,5,9)              110.0626         -DE/DX =    0.0                 !
 ! A10   A(7,5,8)              109.0553         -DE/DX =    0.0                 !
 ! A11   A(7,5,9)              107.4149         -DE/DX =    0.0                 !
 ! A12   A(8,5,9)              108.2501         -DE/DX =    0.0                 !
 ! A13   A(3,6,4)              109.3208         -DE/DX =    0.0                 !
 ! A14   A(3,6,10)             114.2376         -DE/DX =    0.0                 !
 ! A15   A(3,6,12)             125.9488         -DE/DX =    0.0                 !
 ! A16   A(4,6,12)              60.4532         -DE/DX =    0.0                 !
 ! A17   A(10,6,12)            115.8457         -DE/DX =    0.0                 !
 ! A18   A(6,10,13)            107.3492         -DE/DX =    0.0                 !
 ! A19   L(4,6,10,3,-1)        223.5584         -DE/DX =    0.0                 !
 ! A20   L(4,6,10,3,-2)        223.4661         -DE/DX =    0.0                 !
 ! D1    D(2,1,3,5)             -9.6506         -DE/DX =    0.0                 !
 ! D2    D(2,1,3,6)            166.0457         -DE/DX =    0.0                 !
 ! D3    D(11,1,3,5)           174.1354         -DE/DX =    0.0                 !
 ! D4    D(11,1,3,6)           -10.1683         -DE/DX =    0.0                 !
 ! D5    D(1,3,5,7)             59.1036         -DE/DX =    0.0                 !
 ! D6    D(1,3,5,8)           -179.4876         -DE/DX =    0.0                 !
 ! D7    D(1,3,5,9)            -60.5318         -DE/DX =    0.0                 !
 ! D8    D(6,3,5,7)           -116.4964         -DE/DX =    0.0                 !
 ! D9    D(6,3,5,8)              4.9124         -DE/DX =    0.0                 !
 ! D10   D(6,3,5,9)            123.8682         -DE/DX =    0.0                 !
 ! D11   D(1,3,6,4)           -126.5898         -DE/DX =    0.0                 !
 ! D12   D(1,3,6,10)             9.9441         -DE/DX =    0.0                 !
 ! D13   D(1,3,6,12)           166.443          -DE/DX =    0.0                 !
 ! D14   D(5,3,6,4)             49.0206         -DE/DX =    0.0                 !
 ! D15   D(5,3,6,10)          -174.4454         -DE/DX =    0.0                 !
 ! D16   D(5,3,6,12)           -17.9466         -DE/DX =    0.0                 !
 ! D17   D(3,6,10,13)          164.3788         -DE/DX =    0.0                 !
 ! D18   D(12,6,10,13)           5.3991         -DE/DX =    0.0                 !
 --------------------------------------------------------------------------------
 GradGradGradGradGradGradGradGradGradGradGradGradGradGradGradGradGradGrad

 Leave Link  103 at Thu Apr 14 12:00:01 2016, MaxMem=    33554432 cpu:         0.0
 (Enter /usr/local/gau/g09/l9999.exe)

 Test job not archived.
 1\1\GINC-KALI\Freq\RB3LYP\6-31G\C3H7N1O2\ROOT\14-Apr-2016\0\\#P Geom=A
 llCheck Guess=TCheck SCRF=Check Test GenChk RB3LYP/6-31G Freq\\Ala-S-o
 pt-freq-tsa3-6-31g\\0,1\N,1.1692336286,1.3005627424,-0.0135292032\H,2.
 1650712852,1.4361244793,0.0348715052\C,0.6113050829,0.0576671121,-0.01
 30084976\H,-0.9468299017,-0.8565154271,1.1208711761\C,1.4929757568,-1.
 1434376095,-0.1578805977\C,-0.762106174,-0.0721047255,0.2138091023\H,2
 .2463151628,-1.2072930713,0.6401283899\H,0.8837735681,-2.0487440502,-0
 .1459996313\H,2.0302502451,-1.1030858073,-1.1144970561\O,-1.473513931,
 1.1572069226,0.2034953527\H,0.5585271642,2.103859574,-0.0055969015\O,-
 1.557158901,-1.2666424633,-0.0218899879\H,-2.4232405559,0.9435807538,0
 .117133549\\Version=ES64L-G09RevD.01\State=1-A\HF=-323.5132191\RMSD=3.
 260e-09\RMSF=6.886e-06\ZeroPoint=0.1013463\Thermal=0.1084995\Dipole=1.
 3679977,0.8357058,0.2891473\DipoleDeriv=-0.6012652,-0.3118033,0.097405
 7,-0.8264246,-1.0502386,0.1144906,0.0530648,0.0096924,-0.7628751,0.182
 6969,0.0369354,-0.0154236,0.0161981,0.2024175,0.0087477,-0.0748088,-0.
 0203311,0.4037054,0.8348477,0.5382174,-0.2182478,0.8225175,0.8785968,-
 0.1025877,-0.2625746,-0.0678137,0.1845482,0.55143,0.3160966,-0.077517,
 0.6992432,0.4720473,-0.0986745,0.0859221,0.175947,0.1403215,0.0497266,
 0.0647364,0.0427074,-0.1013385,-0.0975964,-0.0069032,0.0529625,-0.0156
 755,0.0960228,0.2281405,-0.6606181,0.0379444,-0.9313303,0.4884408,-0.0
 069283,1.0817211,0.4505272,-0.1165501,-0.0944198,0.039144,-0.0983118,0
 .0377474,0.0590873,-0.0306578,-0.1375824,0.0043046,-0.0297424,0.067875
 9,-0.114374,-0.0012066,-0.0034016,0.0268608,-0.0040583,0.0054699,0.020
 9883,0.0981514,-0.0118537,0.0274746,0.0960918,0.0350645,0.0686712,0.03
 05422,0.1133527,0.003921,-0.0617644,-0.651264,0.3952472,0.0129306,0.73
 69207,-0.7840446,-0.0163584,-0.1118494,-0.0709357,-0.4833024,0.1493369
 ,-0.0339144,0.0117031,0.0433558,0.2358007,-0.0181205,0.0401695,0.00427
 77,0.3973986,-0.9613299,-0.2460372,0.129327,-0.3368734,-0.7686001,0.13
 36703,-0.8147264,-0.5107237,-0.266438,0.256078,-0.0511047,-0.0174031,-
 0.1916788,0.2685575,-0.0031621,-0.031121,0.0158214,0.4005245\Polar=72.
 3035782,9.1921602,52.7940753,-4.0049092,-1.6641753,27.7100871\PG=C01 [
 X(C3H7N1O2)]\NImag=1\\0.88175694,-0.01381602,0.78975645,0.01088854,0.0
 0646125,0.04686673,-0.45998024,-0.04472116,-0.01794411,0.47752579,-0.0
 4476530,-0.08123539,-0.00153362,0.05490453,0.07621236,-0.02229442,-0.0
 0215263,-0.00722753,0.02024339,0.00172539,0.00796726,-0.18151720,-0.08
 940277,-0.00368252,-0.01164947,-0.04045925,-0.00314871,0.74555245,-0.0
 9751268,-0.34182298,-0.00536911,-0.00026855,-0.00188019,0.00010561,0.0
 3571464,0.69373798,0.00515396,-0.00749448,-0.04178750,0.00109996,-0.00
 071330,-0.00216777,-0.04869348,0.02403153,0.16625905,0.00396152,0.0107
 1466,-0.00093895,-0.00107246,-0.00035431,-0.00002592,-0.03454844,-0.02
 102211,0.01771688,0.00030630,0.00856527,0.01738382,0.00005993,-0.00193
 384,-0.00020518,0.00150158,-0.04143731,-0.02304249,0.01116269,-0.03700
 503,0.00651346,0.00023597,-0.00012928,0.00141016,-0.00037557,-0.000069
 76,0.00075492,-0.01492242,-0.00063004,-0.00802952,-0.02031009,-0.08621
 516,0.16474748,0.01374979,-0.01357823,-0.00132369,0.00151990,0.0000864
 4,0.00062169,-0.13997574,0.06253354,0.01090333,-0.00072765,0.00159168,
 0.00090679,0.55217009,0.02402458,-0.03711639,-0.00313008,0.00106449,0.
 00257430,0.00029325,0.05675855,-0.17461102,-0.00800290,0.00045314,0.00
 073431,-0.00036398,0.05144465,0.54293372,-0.00035145,-0.00187230,0.002
 83564,0.00067410,-0.00001289,-0.00070438,0.00321509,-0.00962039,-0.073
 37122,-0.00201538,-0.00399692,0.00006307,0.00100907,-0.00820854,0.5358
 0285,-0.02822405,-0.02412115,0.01285076,0.00344453,0.00208160,0.004803
 15,-0.34358595,-0.02738687,0.02605566,0.04581804,0.04728349,0.06135977
 ,-0.01946610,0.00871899,0.00961268,0.64346878,-0.05761447,-0.03513205,
 0.01008315,0.00244863,-0.00550222,0.00117101,0.03466935,-0.06714994,-0
 .02010542,0.04975278,0.01833954,0.11426151,0.02468830,0.00457781,-0.00
 159410,-0.04311653,0.41075332,0.01544801,0.03891602,0.00863742,-0.0053
 5790,-0.00205750,0.00582850,-0.00975198,-0.03647346,-0.05243124,-0.017
 09787,0.00408939,-0.12622582,0.00288061,-0.00123830,-0.00024503,0.0044
 2635,0.01386199,0.16856882,0.00137349,-0.00157066,0.00100909,0.0003453
 0,0.00055974,-0.00079714,-0.02052629,0.00374580,-0.01202111,-0.0003063
 4,-0.00020681,-0.00040632,-0.16101845,0.00564956,-0.12604541,0.0029421
 6,0.00224950,-0.00123295,0.18035061,-0.00011045,0.00227640,-0.00115133
 ,-0.00076228,-0.00071755,0.00063253,0.02467893,-0.00363678,0.02040860,
 -0.00030575,-0.00034995,0.00001022,0.00741176,-0.05051054,0.00959086,-
 0.00255588,-0.00308482,0.00011059,-0.01278254,0.05199460,0.00028213,0.
 00090280,0.00036899,-0.00043873,0.00079357,-0.00027374,0.00505059,-0.0
 0137618,0.00615075,0.00036485,0.00023003,-0.00001484,-0.12600919,0.008
 08713,-0.18231904,0.00058191,-0.00076408,-0.00001080,0.13985572,-0.009
 08222,0.19939611,-0.00419557,0.00282805,0.00029283,-0.00024644,0.00011
 174,-0.00008373,0.01525471,0.02041830,-0.00107126,0.00097048,0.0016958
 5,0.00121665,-0.13644271,-0.13195702,0.00203558,-0.00139615,0.00135687
 ,0.00299618,-0.01185034,-0.01802808,0.00178693,0.14646566,0.00530139,-
 0.00218251,-0.00074009,0.00027868,0.00035604,0.00030177,-0.01878001,-0
 .02609057,0.00186921,-0.00047220,-0.00146120,-0.00103447,-0.12432337,-
 0.23728512,0.00228296,-0.00023180,-0.00112384,-0.00250143,0.00249572,0
 .00289822,0.00053333,0.13726971,0.26260949,0.00064121,-0.00029332,0.00
 144326,0.00003956,0.00008047,-0.00065816,-0.00268880,-0.00407065,-0.00
 124609,0.00048344,-0.00059038,-0.00034557,0.00213699,0.00291969,-0.050
 67010,0.00015147,0.00004263,0.00011627,-0.01448764,-0.02210505,0.00051
 419,-0.00330951,-0.00227204,0.05105320,0.00114037,-0.00134756,-0.00147
 570,0.00036181,0.00000162,0.00052565,-0.01497727,0.00152065,0.01924141
 ,0.00101726,0.00063239,-0.00052859,-0.10517200,-0.00743438,0.10900058,
 0.00042598,0.00186108,0.00124159,0.01077958,0.00119007,-0.02155803,-0.
 00827027,0.00042912,0.01723040,0.11731387,-0.00040670,0.00119828,0.001
 66389,-0.00027918,-0.00060361,-0.00102156,0.01665943,-0.00127790,-0.02
 651770,-0.00053329,-0.00108198,-0.00017107,-0.00675343,-0.04913538,0.0
 1031644,0.00069941,-0.00184710,-0.00151689,-0.00105884,0.00021605,0.00
 051893,-0.01231785,0.00006094,0.02590602,0.00282945,0.05156433,-0.0006
 5277,0.00014320,0.00117465,0.00005118,-0.00063791,-0.00076350,0.003076
 63,0.00048810,-0.00003668,-0.00016529,-0.00001552,0.00027319,0.1086183
 5,0.01062772,-0.24305479,-0.00115833,-0.00021761,-0.00109575,0.0127321
 0,0.00218930,-0.02322236,-0.00106169,-0.00077748,0.00007138,-0.1218867
 3,-0.01145892,0.26654903,-0.00216437,0.00017838,0.00000351,-0.00030237
 ,0.00160190,0.00080538,-0.03429218,0.04798325,-0.00185860,-0.01080974,
 -0.00235588,-0.00654338,-0.00331607,-0.00387812,0.00081142,-0.14076718
 ,0.08964794,-0.00585136,-0.00126670,0.00125317,0.00007125,0.00033663,-
 0.00031785,-0.00031407,-0.00138951,0.00096253,0.00029022,0.61587854,0.
 00235863,0.01355079,-0.00034826,-0.00121588,0.00069623,0.00102047,-0.0
 0247647,-0.02149483,0.00462818,0.00670475,-0.02109003,-0.00027051,-0.0
 0227359,0.00282714,0.00161755,0.05000751,-0.16303824,-0.01341563,0.001
 33290,-0.00087075,0.00027220,-0.00063127,0.00008656,0.00018277,0.00055
 738,-0.00012090,-0.00042649,0.00400355,0.29261430,-0.00287332,-0.00448
 603,-0.00091965,0.00063835,-0.00017883,-0.00029339,0.01297980,0.000648
 25,0.00500866,-0.00705132,0.00777129,0.00727001,0.00104752,0.00005351,
 0.00476087,-0.01804979,0.00676568,-0.04091689,0.00062937,-0.00078141,-
 0.00032879,-0.00055143,0.00033981,-0.00004410,-0.00064118,0.00086985,-
 0.00004424,0.04365490,0.00685361,0.02875510,-0.21763660,0.18391471,0.0
 0072278,-0.01085339,0.02740002,0.00048939,0.01840935,-0.01076061,-0.00
 191247,0.00128895,0.00285515,0.00018008,-0.00123731,-0.00325414,-0.000
 14536,0.00084875,-0.00874588,0.00658587,-0.00027086,0.00008110,0.00008
 866,0.00050595,-0.00069720,-0.00007924,-0.00019790,0.00008834,-0.00003
 961,-0.00097427,0.00332321,-0.00052415,0.21199585,0.18328419,-0.315336
 47,-0.00289772,-0.01010981,0.01026587,-0.00011053,0.02087791,-0.028157
 99,-0.00082645,-0.00060246,-0.00101913,-0.00050974,-0.00460197,-0.0020
 8716,0.00083139,0.00244218,-0.00190887,-0.00140052,0.00005730,0.000185
 00,0.00015876,0.00117058,-0.00089246,-0.00016767,-0.00005112,0.0003013
 0,-0.00011874,0.00181156,-0.00002013,-0.00002724,-0.19507984,0.3364815
 5,0.00161370,-0.00630059,-0.01544804,-0.00140330,0.00169386,-0.0008720
 1,0.00352833,0.00127302,0.00258743,0.00027929,-0.00046641,-0.00024836,
 -0.00024115,-0.00072598,0.00363103,-0.00330969,-0.00007615,-0.00239197
 ,0.00035559,-0.00064461,-0.00000223,0.00009983,-0.00042996,0.00061806,
 -0.00031235,0.00061126,0.00013994,-0.00025832,-0.00047333,-0.00246421,
 -0.00102812,0.00380163,0.01365340,-0.00999899,-0.01153158,-0.00058616,
 0.00095818,-0.00125838,-0.00118540,0.00339574,-0.01547641,-0.01345388,
 -0.00530767,0.02196959,-0.02115116,0.00014924,-0.00123195,0.00194542,-
 0.13267009,-0.09233284,0.00972184,-0.00069587,-0.00001681,-0.00019460,
 -0.00114826,-0.00100895,0.00020233,-0.00104362,0.00000052,0.00035421,0
 .02073998,0.00643148,0.00773974,-0.00233327,0.00067924,0.00088087,0.12
 444712,-0.00685127,-0.00943966,-0.00368709,0.00062623,-0.00034710,-0.0
 0344599,0.00017287,0.00226720,0.00176230,-0.01099054,0.00262180,-0.026
 78369,0.00260971,-0.00344889,0.00137155,-0.06398238,-0.15249945,-0.005
 30985,-0.00047039,0.00167341,-0.00020889,-0.00205495,0.00297428,0.0003
 3802,-0.00041352,0.00091280,0.00018009,-0.01606645,-0.04231424,-0.0067
 2848,-0.00032127,0.00097389,0.00207949,0.10019704,0.19270117,-0.008745
 85,-0.02302944,0.00321744,0.00284121,0.00101419,-0.00146977,0.05314714
 ,0.03177897,-0.00015153,0.03050008,0.06520107,-0.03971684,-0.00112421,
 -0.00020812,0.00133099,-0.09805082,-0.12214608,0.04135619,0.00014725,0
 .00124386,-0.00015296,-0.00231292,0.00243868,-0.00089103,-0.00059019,0
 .00041631,-0.00005664,0.01104958,0.00615674,0.00402493,-0.00371490,0.0
 0138678,0.00078442,0.01497383,0.03981993,-0.00662587,0.00173489,0.0024
 5334,0.00018362,-0.00005112,0.00008964,0.00004667,-0.00153972,0.000511
 06,-0.00116040,-0.00059025,-0.00165454,0.00033828,-0.00023298,-0.00035
 836,0.00025365,-0.03083874,-0.00486473,-0.00400839,0.00014371,-0.00005
 321,0.00011852,0.00001630,0.00005677,-0.00000615,0.00001170,0.00010961
 ,-0.00015827,-0.44167277,-0.06812219,-0.03699850,0.00045474,0.00012224
 ,-0.00020468,0.00350751,-0.00245508,0.00187981,0.46905674,-0.00245715,
 -0.00190030,0.00058907,-0.00003186,0.00038644,-0.00002089,0.00302412,-
 0.00684048,-0.00020226,0.00366036,0.00265702,0.00190596,0.00116452,0.0
 0054722,-0.00070561,0.05016144,-0.00238415,0.00693559,-0.00000127,-0.0
 0007329,-0.00006537,0.00013809,0.00005019,0.00002950,0.00022481,-0.000
 18685,0.00002426,-0.12482398,-0.06082590,-0.01110002,0.00119641,0.0012
 1462,-0.00034222,-0.00642094,0.00392480,-0.00407290,0.07416545,0.06343
 068,0.00065429,-0.00066521,-0.00057156,-0.00006815,-0.00010367,-0.0001
 2043,0.00189034,-0.00078563,-0.00078435,-0.00173972,0.00126841,0.00006
 211,0.00057387,-0.00010340,0.00194012,0.00072688,-0.00128253,-0.001189
 70,0.00026144,-0.00042134,-0.00010529,-0.00003744,-0.00001029,0.000038
 70,-0.00024686,0.00038343,0.00006578,-0.04186052,-0.00579730,-0.004808
 30,-0.00062293,-0.00011996,0.00001255,0.00075295,0.00061259,-0.0016493
 2,0.03971585,0.00702489,0.00710970\\-0.00000580,-0.00001266,0.00001328
 ,-0.00000015,-0.00000158,-0.00000516,0.00000211,0.00000088,-0.00000007
 ,0.00001370,0.00001246,-0.00001014,-0.00001447,0.00000100,0.00000050,0
 .00001038,0.00000684,0.00001215,-0.00000009,-0.00000005,-0.00000152,-0
 .00000817,0.00000603,0.00000083,-0.00000167,0.00000006,-0.00000221,0.0
 0000119,0.00000299,-0.00000564,0.00000030,-0.00000093,-0.00000295,0.00
 000184,-0.00001429,-0.00000697,0.00000082,-0.00000076,0.00000791\\\@


 THEREFORE SHALL EVIL COME UPON THEE...
 THOU SHALT NOT KNOW FROM WHENCE IT RISETH...
 AND MISCHIEF SHALL FALL UPON THEE...
 THOU SHALT NOT BE ABLE TO PUT IT OFF...
 AND DESOLATION SHALL COME UPON THEE SUDDENLY...
 WHICH THOU SHALT NOT KNOW...

                                         ISAIAH 47.11
 Job cpu time:       0 days  0 hours  1 minutes 11.8 seconds.
 File lengths (MBytes):  RWF=     12 Int=      0 D2E=      0 Chk=      2 Scr=      1
 Normal termination of Gaussian 09 at Thu Apr 14 12:00:02 2016.
