 Entering Link 1 = c:\G09w03\l1.exe PID=      7944.
  
 Copyright (c) 1988,1990,1992,1993,1995,1998,2003,2009,2010,
            Gaussian, Inc.  All Rights Reserved.
  
 This is part of the Gaussian(R) 09 program.  It is based on
 the Gaussian(R) 03 system (copyright 2003, Gaussian, Inc.),
 the Gaussian(R) 98 system (copyright 1998, Gaussian, Inc.),
 the Gaussian(R) 94 system (copyright 1995, Gaussian, Inc.),
 the Gaussian 92(TM) system (copyright 1992, Gaussian, Inc.),
 the Gaussian 90(TM) system (copyright 1990, Gaussian, Inc.),
 the Gaussian 88(TM) system (copyright 1988, Gaussian, Inc.),
 the Gaussian 86(TM) system (copyright 1986, Carnegie Mellon
 University), and the Gaussian 82(TM) system (copyright 1983,
 Carnegie Mellon University). Gaussian is a federally registered
 trademark of Gaussian, Inc.
  
 This software contains proprietary and confidential information,
 including trade secrets, belonging to Gaussian, Inc.
  
 This software is provided under written license and may be
 used, copied, transmitted, or stored only in accord with that
 written license.
  
 The following legend is applicable only to US Government
 contracts under FAR:
  
                    RESTRICTED RIGHTS LEGEND
  
 Use, reproduction and disclosure by the US Government is
 subject to restrictions as set forth in subparagraphs (a)
 and (c) of the Commercial Computer Software - Restricted
 Rights clause in FAR 52.227-19.
  
 Gaussian, Inc.
 340 Quinnipiac St., Bldg. 40, Wallingford CT 06492
  
  
 ---------------------------------------------------------------
 Warning -- This program may not be used in any manner that
 competes with the business of Gaussian, Inc. or will provide
 assistance to any competitor of Gaussian, Inc.  The licensee
 of this program is prohibited from giving any competitor of
 Gaussian, Inc. access to this program.  By using this program,
 the user acknowledges that Gaussian, Inc. is engaged in the
 business of creating and licensing software in the field of
 computational chemistry and represents and warrants to the
 licensee that it is not a competitor of Gaussian, Inc. and that
 it will not use this program in any manner prohibited above.
 ---------------------------------------------------------------
  

 Cite this work as:
 Gaussian 09, Revision B.01,
 M. J. Frisch, G. W. Trucks, H. B. Schlegel, G. E. Scuseria, 
 M. A. Robb, J. R. Cheeseman, G. Scalmani, V. Barone, B. Mennucci, 
 G. A. Petersson, H. Nakatsuji, M. Caricato, X. Li, H. P. Hratchian, 
 A. F. Izmaylov, J. Bloino, G. Zheng, J. L. Sonnenberg, M. Hada, 
 M. Ehara, K. Toyota, R. Fukuda, J. Hasegawa, M. Ishida, T. Nakajima, 
 Y. Honda, O. Kitao, H. Nakai, T. Vreven, J. A. Montgomery, Jr., 
 J. E. Peralta, F. Ogliaro, M. Bearpark, J. J. Heyd, E. Brothers, 
 K. N. Kudin, V. N. Staroverov, T. Keith, R. Kobayashi, J. Normand, 
 K. Raghavachari, A. Rendell, J. C. Burant, S. S. Iyengar, J. Tomasi, 
 M. Cossi, N. Rega, J. M. Millam, M. Klene, J. E. Knox, J. B. Cross, 
 V. Bakken, C. Adamo, J. Jaramillo, R. Gomperts, R. E. Stratmann, 
 O. Yazyev, A. J. Austin, R. Cammi, C. Pomelli, J. W. Ochterski, 
 R. L. Martin, K. Morokuma, V. G. Zakrzewski, G. A. Voth, 
 P. Salvador, J. J. Dannenberg, S. Dapprich, A. D. Daniels, 
 O. Farkas, J. B. Foresman, J. V. Ortiz, J. Cioslowski, 
 and D. J. Fox, Gaussian, Inc., Wallingford CT, 2010.
 
 ******************************************
 Gaussian 09:  IA32W-G09RevB.01 12-Aug-2010
                16-Apr-2016 
 ******************************************
 %chk=Ala-S-opt-freq-cpcm-w-tsb1-6-311++gdp.chk
 ----------------------------------------------------------------------
 #p opt=(calcfc,ts) freq rb3lyp/6-311++g(d,p) scrf=(cpcm,solvent=water)
  iop(1/11=1) nosymm
 ----------------------------------------------------------------------
 1/5=1,10=4,11=1,14=-1,18=20,26=3,38=1/1,3;
 2/9=110,12=2,15=1,17=6,18=5,40=1/2;
 3/5=4,6=6,7=1111,11=2,16=1,25=1,30=1,70=2101,71=2,72=1,74=-5,116=1/1,2,3;
 4//1;
 5/5=2,38=5,53=1/2;
 8/6=4,10=90,11=11/1;
 11/6=1,8=1,9=11,15=111,16=1,31=1/1,2,10;
 10/6=1,7=6,13=1,31=1/2;
 6/7=2,8=2,9=2,10=2,28=1/1;
 7/10=1,18=20,25=1,30=1/1,2,3,16;
 1/5=1,10=4,11=1,14=-1,18=20/3(2);
 2/9=110,15=1/2;
 99//99;
 2/9=110,15=1/2;
 3/5=4,6=6,7=1111,11=2,16=1,25=1,30=1,70=2105,71=1,72=1,74=-5,116=1/1,2,3;
 4/5=5,16=3/1;
 5/5=2,38=5,53=1/2;
 7/30=1/1,2,3,16;
 1/5=1,11=1,14=-1,18=20/3(-5);
 2/9=110,15=1/2;
 6/7=2,8=2,9=2,10=2,19=2,28=1/1;
 99/9=1/99;
 Leave Link    1 at Sat Apr 16 14:31:15 2016, MaxMem=          0 cpu:       0.0
 (Enter c:\G09w03\l101.exe)
 -------------------------------------
 Ala-S-opt-freq-cpcm-w-tsb1-6-311++gdp
 -------------------------------------
 Symbolic Z-matrix:
 Charge =  0 Multiplicity = 1
 N                    -1.29656  -1.14605  -0.52857 
 H                    -1.92903  -1.74646  -0.02191 
 C                    -0.65551  -0.07804   0.21816 
 H                     0.20724  -1.1798    0.99162 
 C                    -1.42651   1.21746   0.37061 
 C                     0.76579  -0.01845  -0.003 
 H                    -2.34367   1.03933   0.94505 
 H                    -0.8472    1.98427   0.89748 
 H                    -1.72921   1.63805  -0.60364 
 O                     1.39348  -1.06323   0.50107 
 H                    -1.62035  -0.91883  -1.46435 
 O                     1.45782   1.00876  -0.52314 
 H                     2.42514   0.91577  -0.3823 
 
 NAtoms=     13 NQM=     13 NQMF=      0 NMic=      0 NMicF=      0 NTot=     13.
 Add atom      4 valence  3 ND=      2 dihedral       3      4      6     10
                    Isotopes and Nuclear Properties:
 (Nuclear quadrupole moments (NQMom) in fm**2, nuclear magnetic moments (NMagM)
  in nuclear magnetons)

  Atom         1           2           3           4           5           6           7           8           9          10
 IAtWgt=          14           1          12           1          12          12           1           1           1          16
 AtmWgt=  14.0030740   1.0078250  12.0000000   1.0078250  12.0000000  12.0000000   1.0078250   1.0078250   1.0078250  15.9949146
 NucSpn=           2           1           0           1           0           0           1           1           1           0
 AtZEff=   0.0000000   0.0000000   0.0000000   0.0000000   0.0000000   0.0000000   0.0000000   0.0000000   0.0000000   0.0000000
 NQMom=    2.0440000   0.0000000   0.0000000   0.0000000   0.0000000   0.0000000   0.0000000   0.0000000   0.0000000   0.0000000
 NMagM=    0.4037610   2.7928460   0.0000000   2.7928460   0.0000000   0.0000000   2.7928460   2.7928460   2.7928460   0.0000000

  Atom        11          12          13
 IAtWgt=           1          16           1
 AtmWgt=   1.0078250  15.9949146   1.0078250
 NucSpn=           1           0           1
 AtZEff=   0.0000000   0.0000000   0.0000000
 NQMom=    0.0000000   0.0000000   0.0000000
 NMagM=    2.7928460   0.0000000   2.7928460
 Leave Link  101 at Sat Apr 16 14:31:15 2016, MaxMem=   33554432 cpu:       0.0
 (Enter c:\G09w03\l103.exe)

 GradGradGradGradGradGradGradGradGradGradGradGradGradGradGradGradGradGrad
 Berny optimization.
 Initialization pass.
                           ----------------------------
                           !    Initial Parameters    !
                           ! (Angstroms and Degrees)  !
 --------------------------                            --------------------------
 ! Name  Definition              Value          Derivative Info.                !
 --------------------------------------------------------------------------------
 ! R1    R(1,2)                  1.0086         calculate D2E/DX2 analytically  !
 ! R2    R(1,3)                  1.4523         calculate D2E/DX2 analytically  !
 ! R3    R(1,11)                 1.0159         calculate D2E/DX2 analytically  !
 ! R4    R(3,4)                  1.5989         calculate D2E/DX2 analytically  !
 ! R5    R(3,5)                  1.5153         calculate D2E/DX2 analytically  !
 ! R6    R(3,6)                  1.4396         calculate D2E/DX2 analytically  !
 ! R7    R(4,6)                  1.6279         calculate D2E/DX2 analytically  !
 ! R8    R(4,10)                 1.2889         calculate D2E/DX2 analytically  !
 ! R9    R(5,7)                  1.0968         calculate D2E/DX2 analytically  !
 ! R10   R(5,8)                  1.096          calculate D2E/DX2 analytically  !
 ! R11   R(5,9)                  1.1035         calculate D2E/DX2 analytically  !
 ! R12   R(6,10)                 1.319          calculate D2E/DX2 analytically  !
 ! R13   R(6,12)                 1.3434         calculate D2E/DX2 analytically  !
 ! R14   R(12,13)                0.9819         calculate D2E/DX2 analytically  !
 ! A1    A(2,1,3)              117.148          calculate D2E/DX2 analytically  !
 ! A2    A(2,1,11)             113.3282         calculate D2E/DX2 analytically  !
 ! A3    A(3,1,11)             116.7307         calculate D2E/DX2 analytically  !
 ! A4    A(1,3,4)               88.8633         calculate D2E/DX2 analytically  !
 ! A5    A(1,3,5)              117.1208         calculate D2E/DX2 analytically  !
 ! A6    A(1,3,6)              112.7823         calculate D2E/DX2 analytically  !
 ! A7    A(4,3,5)              144.5903         calculate D2E/DX2 analytically  !
 ! A8    A(5,3,6)              118.8434         calculate D2E/DX2 analytically  !
 ! A9    A(3,4,10)             104.4875         calculate D2E/DX2 analytically  !
 ! A10   A(3,5,7)              109.8367         calculate D2E/DX2 analytically  !
 ! A11   A(3,5,8)              112.1851         calculate D2E/DX2 analytically  !
 ! A12   A(3,5,9)              112.1248         calculate D2E/DX2 analytically  !
 ! A13   A(7,5,8)              107.6895         calculate D2E/DX2 analytically  !
 ! A14   A(7,5,9)              107.1531         calculate D2E/DX2 analytically  !
 ! A15   A(8,5,9)              107.6223         calculate D2E/DX2 analytically  !
 ! A16   A(3,6,10)             112.2311         calculate D2E/DX2 analytically  !
 ! A17   A(3,6,12)             126.8493         calculate D2E/DX2 analytically  !
 ! A18   A(4,6,12)             163.5057         calculate D2E/DX2 analytically  !
 ! A19   A(10,6,12)            120.5658         calculate D2E/DX2 analytically  !
 ! A20   A(6,12,13)            112.3042         calculate D2E/DX2 analytically  !
 ! D1    D(2,1,3,4)             69.8958         calculate D2E/DX2 analytically  !
 ! D2    D(2,1,3,5)            -85.0264         calculate D2E/DX2 analytically  !
 ! D3    D(2,1,3,6)            131.5568         calculate D2E/DX2 analytically  !
 ! D4    D(11,1,3,4)          -150.9457         calculate D2E/DX2 analytically  !
 ! D5    D(11,1,3,5)            54.1322         calculate D2E/DX2 analytically  !
 ! D6    D(11,1,3,6)           -89.2847         calculate D2E/DX2 analytically  !
 ! D7    D(1,3,4,10)           106.9377         calculate D2E/DX2 analytically  !
 ! D8    D(5,3,4,10)          -113.6851         calculate D2E/DX2 analytically  !
 ! D9    D(1,3,5,7)             63.4711         calculate D2E/DX2 analytically  !
 ! D10   D(1,3,5,8)           -176.7958         calculate D2E/DX2 analytically  !
 ! D11   D(1,3,5,9)            -55.5491         calculate D2E/DX2 analytically  !
 ! D12   D(4,3,5,7)            -69.5281         calculate D2E/DX2 analytically  !
 ! D13   D(4,3,5,8)             50.205          calculate D2E/DX2 analytically  !
 ! D14   D(4,3,5,9)            171.4518         calculate D2E/DX2 analytically  !
 ! D15   D(6,3,5,7)           -155.3812         calculate D2E/DX2 analytically  !
 ! D16   D(6,3,5,8)            -35.6481         calculate D2E/DX2 analytically  !
 ! D17   D(6,3,5,9)             85.5986         calculate D2E/DX2 analytically  !
 ! D18   D(1,3,6,10)           -67.8            calculate D2E/DX2 analytically  !
 ! D19   D(1,3,6,12)           119.0632         calculate D2E/DX2 analytically  !
 ! D20   D(5,3,6,10)           149.471          calculate D2E/DX2 analytically  !
 ! D21   D(5,3,6,12)           -23.6657         calculate D2E/DX2 analytically  !
 ! D22   D(3,4,6,10)          -168.8697         calculate D2E/DX2 analytically  !
 ! D23   D(3,6,12,13)          166.2118         calculate D2E/DX2 analytically  !
 ! D24   D(4,6,12,13)           46.4148         calculate D2E/DX2 analytically  !
 ! D25   D(10,6,12,13)          -6.4072         calculate D2E/DX2 analytically  !
 --------------------------------------------------------------------------------
 Trust Radius=3.00D-01 FncErr=1.00D-07 GrdErr=1.00D-06
 Number of steps in this run=     69 maximum allowed number of steps=    100.
 Search for a saddle point of order  1.
 GradGradGradGradGradGradGradGradGradGradGradGradGradGradGradGradGradGrad

 Leave Link  103 at Sat Apr 16 14:31:15 2016, MaxMem=   33554432 cpu:       0.0
 (Enter c:\G09w03\l202.exe)
                          Input orientation:                          
 ---------------------------------------------------------------------
 Center     Atomic      Atomic             Coordinates (Angstroms)
 Number     Number       Type             X           Y           Z
 ---------------------------------------------------------------------
      1          7           0       -1.296560   -1.146049   -0.528572
      2          1           0       -1.929033   -1.746463   -0.021911
      3          6           0       -0.655507   -0.078037    0.218159
      4          1           0        0.207242   -1.179802    0.991619
      5          6           0       -1.426509    1.217456    0.370611
      6          6           0        0.765791   -0.018454   -0.002996
      7          1           0       -2.343672    1.039326    0.945052
      8          1           0       -0.847203    1.984273    0.897484
      9          1           0       -1.729211    1.638054   -0.603635
     10          8           0        1.393477   -1.063234    0.501066
     11          1           0       -1.620350   -0.918825   -1.464350
     12          8           0        1.457819    1.008762   -0.523142
     13          1           0        2.425138    0.915769   -0.382296
 ---------------------------------------------------------------------
                    Distance matrix (angstroms):
                    1          2          3          4          5
     1  N    0.000000
     2  H    1.008575   0.000000
     3  C    1.452310   2.112616   0.000000
     4  H    2.138584   2.431464   1.598894   0.000000
     5  C    2.532108   3.031735   1.515252   2.966756   0.000000
     6  C    2.408525   3.201320   1.439635   1.627871   2.544255
     7  H    2.836173   2.977845   2.150994   3.381399   1.096768
     8  H    3.469074   3.991746   2.179760   3.336478   1.095992
     9  H    2.818519   3.439955   2.184755   3.772930   1.103488
    10  O    2.881547   3.432110   2.291066   1.288947   3.629172
    11  H    1.015948   1.691420   2.113926   3.072456   2.822827
    12  O    3.497119   4.394686   2.489338   2.940792   3.026829
    13  H    4.257173   5.116264   3.292198   3.346360   3.936124
                    6          7          8          9         10
     6  C    0.000000
     7  H    3.418546   0.000000
     8  H    2.724615   1.770482   0.000000
     9  H    3.054476   1.770443   1.775152   0.000000
    10  O    1.318952   4.310935   3.803300   4.274167   0.000000
    11  H    2.939369   3.187910   3.821517   2.700058   3.600954
    12  O    1.343364   4.075274   2.878007   3.249561   2.312209
    13  H    1.941668   4.951633   3.672568   4.222476   2.400230
                   11         12         13
    11  H    0.000000
    12  O    3.751878   0.000000
    13  H    4.571931   0.981932   0.000000
 Symmetry turned off by external request.
 Stoichiometry    C3H7NO2
 Framework group  C1[X(C3H7NO2)]
 Deg. of freedom    33
 Full point group                 C1      NOp   1
 Rotational constants (GHZ):      4.8400771      3.0383707      2.1875468
 Leave Link  202 at Sat Apr 16 14:31:15 2016, MaxMem=   33554432 cpu:       0.0
 (Enter c:\G09w03\l301.exe)
 Standard basis: 6-311++G(d,p) (5D, 7F)
 Ernie: Thresh=  0.10000D-02 Tol=  0.10000D-05 Strict=F.
 Integral buffers will be    262144 words long.
 Raffenetti 2 integral format.
 Two-electron integral symmetry is turned off.
   181 basis functions,   279 primitive gaussians,   187 cartesian basis functions
    24 alpha electrons       24 beta electrons
       nuclear repulsion energy       246.2836804726 Hartrees.
 IExCor=  402 DFT=T Ex+Corr=B3LYP ExCW=0 ScaHFX=  0.200000
 ScaDFX=  0.800000  0.720000  1.000000  0.810000 ScalE2=  1.000000  1.000000
 IRadAn=      0 IRanWt=     -1 IRanGd=            0 ICorTp=0
 NAtoms=   13 NActive=   13 NUniq=   13 SFac= 1.00D+00 NAtFMM=   50 NAOKFM=F Big=F
 ------------------------------------------------------------------------------
 Polarizable Continuum Model (PCM)
 =================================
 Model                : C-PCM.
 Atomic radii         : UFF (Universal Force Field).
 Polarization charges : Total charges.
 Charge compensation  : None.
 Solution method      : Matrix inversion.
 Cavity type          : Scaled VdW (van der Waals Surface) (Alpha=1.100).
 Cavity algorithm     : GePol (No added spheres)
                        Default sphere list used, NSphG=   13.
                        Lebedev-Laikov grids with approx.  5.0 points / Ang**2.
                        Smoothing algorithm: Karplus/York (Gamma=1.0000).
                        Polarization charges: spherical gaussians, with
                                              point-specific exponents (IZeta= 3).
                        Self-potential: point-specific (ISelfS= 7).
                        Self-field    : sphere-specific E.n sum rule (ISelfD= 2).
 1st derivatives      : Analytical E(r).r(x)/FMM algorithm (CHGder, D1EAlg=3).
                        Cavity 1st derivative terms included.
 2nd derivatives      : Analytical E(r).r(xy)/FMM algorithm (CHGder, D2EAlg=3).
                        Cavity 2nd derivative terms included.
 Solvent              : Water, Eps=  78.355300 Eps(inf)=   1.777849
 ------------------------------------------------------------------------------
 Spheres list:
 ISph  on   Nord    Re0     Alpha      Xe            Ye            Ze
    1   N      1    1.830   1.100     -1.296560     -1.146049     -0.528572
    2   H      2    1.443   1.100     -1.929033     -1.746463     -0.021911
    3   C      3    1.926   1.100     -0.655507     -0.078037      0.218159
    4   H      4    1.443   1.100      0.207242     -1.179802      0.991619
    5   C      5    1.926   1.100     -1.426509      1.217456      0.370611
    6   C      6    1.926   1.100      0.765791     -0.018454     -0.002996
    7   H      7    1.443   1.100     -2.343672      1.039326      0.945052
    8   H      8    1.443   1.100     -0.847203      1.984273      0.897484
    9   H      9    1.443   1.100     -1.729211      1.638054     -0.603635
   10   O     10    1.750   1.100      1.393477     -1.063234      0.501066
   11   H     11    1.443   1.100     -1.620350     -0.918825     -1.464350
   12   O     12    1.750   1.100      1.457819      1.008762     -0.523142
   13   H     13    1.443   1.100      2.425138      0.915769     -0.382296
 ------------------------------------------------------------------------------
 GePol: Number of generator spheres                  =      13
 GePol: Total number of spheres                      =      13
 GePol: Number of exposed spheres                    =      13 (100.00%)
 GePol: Number of points                             =    1146
 GePol: Average weight of points                     =       0.13
 GePol: Minimum weight of points                     =   0.22D-09
 GePol: Maximum weight of points                     =    0.20577
 GePol: Number of points with low weight             =      64
 GePol: Fraction of low-weight points (<1% of avg)   =       5.58%
 GePol: Cavity surface area                          =    151.848 Ang**2
 GePol: Cavity volume                                =    138.478 Ang**3
 Leave Link  301 at Sat Apr 16 14:31:15 2016, MaxMem=   33554432 cpu:       0.0
 (Enter c:\G09w03\l302.exe)
 NPDir=0 NMtPBC=     1 NCelOv=     1 NCel=       1 NClECP=     1 NCelD=      1
         NCelK=      1 NCelE2=     1 NClLst=     1 CellRange=     0.0.
 One-electron integrals computed using PRISM.
 NBasis=   181 RedAO= T  NBF=   181
 NBsUse=   181 1.00D-06 NBFU=   181
 Precomputing XC quadrature grid using
 IXCGrd= 2 IRadAn=           0 IRanWt=          -1 IRanGd=           0 AccXCQ= 0.00D+00.
 NRdTot=     842 NPtTot=      107350 NUsed=      111282 NTot=      111298
 NSgBfM=   187   187   187   187   187 NAtAll=    13    13.
 Leave Link  302 at Sat Apr 16 14:31:16 2016, MaxMem=   33554432 cpu:       1.0
 (Enter c:\G09w03\l303.exe)
 DipDrv:  MaxL=1.
 Leave Link  303 at Sat Apr 16 14:31:16 2016, MaxMem=   33554432 cpu:       0.0
 (Enter c:\G09w03\l401.exe)
 Harris functional with IExCor=  402 diagonalized for initial guess.
 ExpMin= 3.60D-02 ExpMax= 8.59D+03 ExpMxC= 1.30D+03 IAcc=3 IRadAn=         0 AccDes= 0.00D+00
 HarFok:  IExCor=  402 AccDes= 0.00D+00 IRadAn=         0 IDoV= 1
 ScaDFX=  1.000000  1.000000  1.000000  1.000000
 FoFCou: FMM=F IPFlag=           0 FMFlag=      100000 FMFlg1=           0
         NFxFlg=           0 DoJE=T BraDBF=F KetDBF=T FulRan=T
         Omega=  0.000000  0.000000  1.000000  0.000000  0.000000 ICntrl=     500 IOpCl=  0
         NMat0=    1 NMatS0=    1 NMatT0=    0 NMatD0=    1 NMtDS0=    0 NMtDT0=    0
         I1Cent=           4 NGrid=           0.
 Symmetry not used in FoFCou.
 Harris En= -323.756511445074    
 Leave Link  401 at Sat Apr 16 14:31:20 2016, MaxMem=   33554432 cpu:       4.0
 (Enter c:\G09w03\l502.exe)
 Closed shell SCF:
 Requested convergence on RMS density matrix=1.00D-08 within 128 cycles.
 Requested convergence on MAX density matrix=1.00D-06.
 Requested convergence on             energy=1.00D-06.
 No special actions if energy rises.
 Using DIIS extrapolation, IDIIS=  1040.
 Two-electron integral symmetry not used.
       111165 words used for storage of precomputed grid.
 IEnd=      236371 IEndB=      236371 NGot=    33554432 MDV=    33369858
 LenX=    33369858 LenY=    33334448
 Fock matrices will be formed incrementally for  20 cycles.

 Cycle   1  Pass 1  IDiag  1:
 FoFCou: FMM=F IPFlag=           0 FMFlag=      100000 FMFlg1=           0
         NFxFlg=           0 DoJE=F BraDBF=F KetDBF=F FulRan=T
         Omega=  0.000000  0.000000  1.000000  0.000000  0.000000 ICntrl=       0 IOpCl=  0
         NMat0=    1 NMatS0=    1 NMatT0=    0 NMatD0=    1 NMtDS0=    0 NMtDT0=    0
         I1Cent=           0 NGrid=           0.
 Symmetry not used in FoFCou.
 E= -323.523364892708    
 DIIS: error= 3.61D-02 at cycle   1 NSaved=   1.
 NSaved= 1 IEnMin= 1 EnMin= -323.523364892708     IErMin= 1 ErrMin= 3.61D-02
 ErrMax= 3.61D-02 EMaxC= 1.00D-01 BMatC= 2.62D-01 BMatP= 2.62D-01
 IDIUse=3 WtCom= 6.39D-01 WtEn= 3.61D-01
 Coeff-Com:  0.100D+01
 Coeff-En:   0.100D+01
 Coeff:      0.100D+01
 Gap=     0.101 Goal=   None    Shift=    0.000
 GapD=    0.101 DampG=1.000 DampE=0.500 DampFc=0.5000 IDamp=-1.
 Damping current iteration by 5.00D-01
 RMSDP=7.00D-03 MaxDP=1.43D-01              OVMax= 2.53D-01

 Cycle   2  Pass 1  IDiag  1:
 RMSU=  2.40D-03    CP:  9.47D-01
 E= -323.590641447875     Delta-E=       -0.067276555167 Rises=F Damp=T
 DIIS: error= 9.25D-03 at cycle   2 NSaved=   2.
 NSaved= 2 IEnMin= 2 EnMin= -323.590641447875     IErMin= 2 ErrMin= 9.25D-03
 ErrMax= 9.25D-03 EMaxC= 1.00D-01 BMatC= 2.07D-02 BMatP= 2.62D-01
 IDIUse=3 WtCom= 9.07D-01 WtEn= 9.25D-02
 Coeff-Com:  0.168D+00 0.832D+00
 Coeff-En:   0.311D+00 0.689D+00
 Coeff:      0.181D+00 0.819D+00
 Gap=     0.193 Goal=   None    Shift=    0.000
 RMSDP=1.91D-03 MaxDP=6.63D-02 DE=-6.73D-02 OVMax= 1.78D-01

 Cycle   3  Pass 1  IDiag  1:
 RMSU=  1.29D-03    CP:  9.38D-01  8.40D-01
 E= -323.728397695429     Delta-E=       -0.137756247554 Rises=F Damp=F
 DIIS: error= 3.43D-03 at cycle   3 NSaved=   3.
 NSaved= 3 IEnMin= 3 EnMin= -323.728397695429     IErMin= 3 ErrMin= 3.43D-03
 ErrMax= 3.43D-03 EMaxC= 1.00D-01 BMatC= 5.68D-03 BMatP= 2.07D-02
 IDIUse=3 WtCom= 9.66D-01 WtEn= 3.43D-02
 Coeff-Com:  0.325D-01 0.345D+00 0.622D+00
 Coeff-En:   0.000D+00 0.000D+00 0.100D+01
 Coeff:      0.314D-01 0.334D+00 0.635D+00
 Gap=     0.163 Goal=   None    Shift=    0.000
 RMSDP=5.56D-04 MaxDP=1.66D-02 DE=-1.38D-01 OVMax= 2.65D-02

 Cycle   4  Pass 1  IDiag  1:
 RMSU=  3.48D-04    CP:  9.37D-01  8.80D-01  8.81D-01
 E= -323.732091451852     Delta-E=       -0.003693756423 Rises=F Damp=F
 DIIS: error= 2.00D-03 at cycle   4 NSaved=   4.
 NSaved= 4 IEnMin= 4 EnMin= -323.732091451852     IErMin= 4 ErrMin= 2.00D-03
 ErrMax= 2.00D-03 EMaxC= 1.00D-01 BMatC= 1.51D-03 BMatP= 5.68D-03
 IDIUse=3 WtCom= 9.80D-01 WtEn= 2.00D-02
 Coeff-Com: -0.650D-02 0.809D-01 0.361D+00 0.564D+00
 Coeff-En:   0.000D+00 0.000D+00 0.205D+00 0.795D+00
 Coeff:     -0.637D-02 0.793D-01 0.358D+00 0.569D+00
 Gap=     0.164 Goal=   None    Shift=    0.000
 RMSDP=2.79D-04 MaxDP=1.14D-02 DE=-3.69D-03 OVMax= 1.11D-02

 Cycle   5  Pass 1  IDiag  1:
 RMSU=  1.34D-04    CP:  9.32D-01  9.04D-01  9.41D-01  7.29D-01
 E= -323.733269950465     Delta-E=       -0.001178498613 Rises=F Damp=F
 DIIS: error= 8.67D-04 at cycle   5 NSaved=   5.
 NSaved= 5 IEnMin= 5 EnMin= -323.733269950465     IErMin= 5 ErrMin= 8.67D-04
 ErrMax= 8.67D-04 EMaxC= 1.00D-01 BMatC= 2.14D-04 BMatP= 1.51D-03
 IDIUse=3 WtCom= 9.91D-01 WtEn= 8.67D-03
 Coeff-Com: -0.621D-02 0.312D-01 0.190D+00 0.363D+00 0.422D+00
 Coeff-En:   0.000D+00 0.000D+00 0.000D+00 0.777D-02 0.992D+00
 Coeff:     -0.616D-02 0.310D-01 0.189D+00 0.360D+00 0.427D+00
 Gap=     0.164 Goal=   None    Shift=    0.000
 RMSDP=7.80D-05 MaxDP=1.83D-03 DE=-1.18D-03 OVMax= 4.90D-03

 Cycle   6  Pass 1  IDiag  1:
 RMSU=  4.27D-05    CP:  9.32D-01  9.03D-01  9.55D-01  7.35D-01  7.80D-01
 E= -323.733416200652     Delta-E=       -0.000146250187 Rises=F Damp=F
 DIIS: error= 2.44D-04 at cycle   6 NSaved=   6.
 NSaved= 6 IEnMin= 6 EnMin= -323.733416200652     IErMin= 6 ErrMin= 2.44D-04
 ErrMax= 2.44D-04 EMaxC= 1.00D-01 BMatC= 1.74D-05 BMatP= 2.14D-04
 IDIUse=3 WtCom= 9.98D-01 WtEn= 2.44D-03
 Coeff-Com: -0.220D-02 0.247D-02 0.436D-01 0.108D+00 0.250D+00 0.598D+00
 Coeff-En:   0.000D+00 0.000D+00 0.000D+00 0.000D+00 0.633D-01 0.937D+00
 Coeff:     -0.220D-02 0.246D-02 0.435D-01 0.108D+00 0.249D+00 0.599D+00
 Gap=     0.164 Goal=   None    Shift=    0.000
 RMSDP=2.92D-05 MaxDP=1.12D-03 DE=-1.46D-04 OVMax= 1.36D-03

 Cycle   7  Pass 1  IDiag  1:
 RMSU=  1.84D-05    CP:  9.32D-01  9.05D-01  9.57D-01  7.38D-01  8.04D-01
                    CP:  8.68D-01
 E= -323.733428713587     Delta-E=       -0.000012512935 Rises=F Damp=F
 DIIS: error= 6.44D-05 at cycle   7 NSaved=   7.
 NSaved= 7 IEnMin= 7 EnMin= -323.733428713587     IErMin= 7 ErrMin= 6.44D-05
 ErrMax= 6.44D-05 EMaxC= 1.00D-01 BMatC= 1.17D-06 BMatP= 1.74D-05
 IDIUse=1 WtCom= 1.00D+00 WtEn= 0.00D+00
 Coeff-Com: -0.867D-03 0.396D-03 0.163D-01 0.452D-01 0.118D+00 0.336D+00
 Coeff-Com:  0.485D+00
 Coeff:     -0.867D-03 0.396D-03 0.163D-01 0.452D-01 0.118D+00 0.336D+00
 Coeff:      0.485D+00
 Gap=     0.164 Goal=   None    Shift=    0.000
 RMSDP=8.59D-06 MaxDP=2.46D-04 DE=-1.25D-05 OVMax= 3.10D-04

 Cycle   8  Pass 1  IDiag  1:
 RMSU=  5.02D-06    CP:  9.33D-01  9.05D-01  9.59D-01  7.37D-01  8.00D-01
                    CP:  9.04D-01  1.07D+00
 E= -323.733429616165     Delta-E=       -0.000000902579 Rises=F Damp=F
 DIIS: error= 1.54D-05 at cycle   8 NSaved=   8.
 NSaved= 8 IEnMin= 8 EnMin= -323.733429616165     IErMin= 8 ErrMin= 1.54D-05
 ErrMax= 1.54D-05 EMaxC= 1.00D-01 BMatC= 8.14D-08 BMatP= 1.17D-06
 IDIUse=1 WtCom= 1.00D+00 WtEn= 0.00D+00
 Coeff-Com:  0.773D-04-0.405D-03-0.103D-02 0.804D-03 0.545D-02 0.428D-01
 Coeff-Com:  0.218D+00 0.735D+00
 Coeff:      0.773D-04-0.405D-03-0.103D-02 0.804D-03 0.545D-02 0.428D-01
 Coeff:      0.218D+00 0.735D+00
 Gap=     0.164 Goal=   None    Shift=    0.000
 RMSDP=4.97D-06 MaxDP=1.75D-04 DE=-9.03D-07 OVMax= 1.31D-04

 Cycle   9  Pass 1  IDiag  1:
 RMSU=  1.43D-06    CP:  9.32D-01  9.05D-01  9.60D-01  7.37D-01  8.07D-01
                    CP:  9.36D-01  1.17D+00  1.16D+00
 E= -323.733429675220     Delta-E=       -0.000000059055 Rises=F Damp=F
 DIIS: error= 4.37D-06 at cycle   9 NSaved=   9.
 NSaved= 9 IEnMin= 9 EnMin= -323.733429675220     IErMin= 9 ErrMin= 4.37D-06
 ErrMax= 4.37D-06 EMaxC= 1.00D-01 BMatC= 9.98D-09 BMatP= 8.14D-08
 IDIUse=1 WtCom= 1.00D+00 WtEn= 0.00D+00
 Coeff-Com:  0.792D-04-0.254D-03-0.153D-02-0.201D-02-0.395D-02 0.359D-02
 Coeff-Com:  0.914D-01 0.393D+00 0.520D+00
 Coeff:      0.792D-04-0.254D-03-0.153D-02-0.201D-02-0.395D-02 0.359D-02
 Coeff:      0.914D-01 0.393D+00 0.520D+00
 Gap=     0.164 Goal=   None    Shift=    0.000
 RMSDP=1.24D-06 MaxDP=5.62D-05 DE=-5.91D-08 OVMax= 4.71D-05

 Cycle  10  Pass 1  IDiag  1:
 RMSU=  3.48D-07    CP:  9.32D-01  9.05D-01  9.61D-01  7.37D-01  8.07D-01
                    CP:  9.44D-01  1.20D+00  1.21D+00  9.69D-01
 E= -323.733429683381     Delta-E=       -0.000000008160 Rises=F Damp=F
 DIIS: error= 1.55D-06 at cycle  10 NSaved=  10.
 NSaved=10 IEnMin=10 EnMin= -323.733429683381     IErMin=10 ErrMin= 1.55D-06
 ErrMax= 1.55D-06 EMaxC= 1.00D-01 BMatC= 8.12D-10 BMatP= 9.98D-09
 IDIUse=1 WtCom= 1.00D+00 WtEn= 0.00D+00
 Coeff-Com:  0.234D-04-0.469D-04-0.606D-03-0.104D-02-0.275D-02-0.523D-02
 Coeff-Com:  0.126D-01 0.744D-01 0.227D+00 0.696D+00
 Coeff:      0.234D-04-0.469D-04-0.606D-03-0.104D-02-0.275D-02-0.523D-02
 Coeff:      0.126D-01 0.744D-01 0.227D+00 0.696D+00
 Gap=     0.164 Goal=   None    Shift=    0.000
 RMSDP=4.99D-07 MaxDP=1.44D-05 DE=-8.16D-09 OVMax= 1.83D-05

 Cycle  11  Pass 1  IDiag  1:
 RMSU=  1.70D-07    CP:  9.33D-01  9.05D-01  9.61D-01  7.37D-01  8.07D-01
                    CP:  9.46D-01  1.22D+00  1.23D+00  1.01D+00  9.19D-01
 E= -323.733429684311     Delta-E=       -0.000000000931 Rises=F Damp=F
 DIIS: error= 4.35D-07 at cycle  11 NSaved=  11.
 NSaved=11 IEnMin=11 EnMin= -323.733429684311     IErMin=11 ErrMin= 4.35D-07
 ErrMax= 4.35D-07 EMaxC= 1.00D-01 BMatC= 6.28D-11 BMatP= 8.12D-10
 IDIUse=1 WtCom= 1.00D+00 WtEn= 0.00D+00
 Coeff-Com: -0.274D-05 0.110D-04-0.635D-04-0.143D-03-0.488D-03-0.200D-02
 Coeff-Com: -0.446D-02-0.163D-01-0.498D-02 0.198D+00 0.831D+00
 Coeff:     -0.274D-05 0.110D-04-0.635D-04-0.143D-03-0.488D-03-0.200D-02
 Coeff:     -0.446D-02-0.163D-01-0.498D-02 0.198D+00 0.831D+00
 Gap=     0.164 Goal=   None    Shift=    0.000
 RMSDP=2.87D-07 MaxDP=1.07D-05 DE=-9.31D-10 OVMax= 9.44D-06

 Cycle  12  Pass 1  IDiag  1:
 RMSU=  4.07D-08    CP:  9.33D-01  9.05D-01  9.61D-01  7.37D-01  8.07D-01
                    CP:  9.48D-01  1.22D+00  1.24D+00  1.05D+00  1.03D+00
                    CP:  9.26D-01
 E= -323.733429684389     Delta-E=       -0.000000000077 Rises=F Damp=F
 DIIS: error= 1.64D-07 at cycle  12 NSaved=  12.
 NSaved=12 IEnMin=12 EnMin= -323.733429684389     IErMin=12 ErrMin= 1.64D-07
 ErrMax= 1.64D-07 EMaxC= 1.00D-01 BMatC= 7.38D-12 BMatP= 6.28D-11
 IDIUse=1 WtCom= 1.00D+00 WtEn= 0.00D+00
 Coeff-Com: -0.258D-05 0.643D-05 0.944D-05 0.236D-04 0.157D-05-0.307D-03
 Coeff-Com: -0.188D-02-0.864D-02-0.142D-01 0.298D-01 0.356D+00 0.640D+00
 Coeff:     -0.258D-05 0.643D-05 0.944D-05 0.236D-04 0.157D-05-0.307D-03
 Coeff:     -0.188D-02-0.864D-02-0.142D-01 0.298D-01 0.356D+00 0.640D+00
 Gap=     0.164 Goal=   None    Shift=    0.000
 RMSDP=2.93D-08 MaxDP=5.79D-07 DE=-7.71D-11 OVMax= 2.11D-06

 Cycle  13  Pass 1  IDiag  1:
 RMSU=  1.35D-08    CP:  9.33D-01  9.05D-01  9.61D-01  7.37D-01  8.07D-01
                    CP:  9.48D-01  1.23D+00  1.24D+00  1.05D+00  1.04D+00
                    CP:  9.84D-01  9.94D-01
 E= -323.733429684393     Delta-E=       -0.000000000004 Rises=F Damp=F
 DIIS: error= 4.56D-08 at cycle  13 NSaved=  13.
 NSaved=13 IEnMin=13 EnMin= -323.733429684393     IErMin=13 ErrMin= 4.56D-08
 ErrMax= 4.56D-08 EMaxC= 1.00D-01 BMatC= 8.30D-13 BMatP= 7.38D-12
 IDIUse=1 WtCom= 1.00D+00 WtEn= 0.00D+00
 Coeff-Com: -0.234D-06 0.875D-06 0.787D-05 0.204D-04 0.445D-04 0.973D-04
 Coeff-Com: -0.355D-03-0.119D-02-0.558D-02-0.270D-01 0.173D-01 0.235D+00
 Coeff-Com:  0.782D+00
 Coeff:     -0.234D-06 0.875D-06 0.787D-05 0.204D-04 0.445D-04 0.973D-04
 Coeff:     -0.355D-03-0.119D-02-0.558D-02-0.270D-01 0.173D-01 0.235D+00
 Coeff:      0.782D+00
 Gap=     0.164 Goal=   None    Shift=    0.000
 RMSDP=1.53D-08 MaxDP=5.96D-07 DE=-4.09D-12 OVMax= 8.54D-07

 Cycle  14  Pass 1  IDiag  1:
 RMSU=  3.89D-09    CP:  9.33D-01  9.05D-01  9.61D-01  7.37D-01  8.07D-01
                    CP:  9.48D-01  1.23D+00  1.25D+00  1.05D+00  1.05D+00
                    CP:  1.01D+00  1.07D+00  1.07D+00
 E= -323.733429684398     Delta-E=       -0.000000000005 Rises=F Damp=F
 DIIS: error= 7.80D-09 at cycle  14 NSaved=  14.
 NSaved=14 IEnMin=14 EnMin= -323.733429684398     IErMin=14 ErrMin= 7.80D-09
 ErrMax= 7.80D-09 EMaxC= 1.00D-01 BMatC= 3.33D-14 BMatP= 8.30D-13
 IDIUse=1 WtCom= 1.00D+00 WtEn= 0.00D+00
 Coeff-Com:  0.999D-07-0.180D-06 0.105D-05 0.445D-05 0.154D-04 0.380D-04
 Coeff-Com:  0.376D-04 0.339D-03-0.973D-04-0.818D-02-0.112D-01 0.113D-01
 Coeff-Com:  0.167D+00 0.841D+00
 Coeff:      0.999D-07-0.180D-06 0.105D-05 0.445D-05 0.154D-04 0.380D-04
 Coeff:      0.376D-04 0.339D-03-0.973D-04-0.818D-02-0.112D-01 0.113D-01
 Coeff:      0.167D+00 0.841D+00
 Gap=     0.164 Goal=   None    Shift=    0.000
 RMSDP=2.23D-09 MaxDP=2.69D-08 DE=-5.34D-12 OVMax= 1.96D-07

 Error on total polarization charges =  0.01321
 SCF Done:  E(RB3LYP) =  -323.733429684     A.U. after   14 cycles
             Convg  =    0.2234D-08             -V/T =  2.0046
 KE= 3.222625544567D+02 PE=-1.250881564816D+03 EE= 3.586019002019D+02
 Leave Link  502 at Sat Apr 16 14:34:15 2016, MaxMem=   33554432 cpu:     175.0
 (Enter c:\G09w03\l801.exe)
 Range of M.O.s used for correlation:     1   181
 NBasis=   181 NAE=    24 NBE=    24 NFC=     0 NFV=     0
 NROrb=    181 NOA=    24 NOB=    24 NVA=   157 NVB=   157

 **** Warning!!: The largest alpha MO coefficient is  0.48562750D+02

 Leave Link  801 at Sat Apr 16 14:34:15 2016, MaxMem=   33554432 cpu:       0.0
 (Enter c:\G09w03\l1101.exe)
 Using compressed storage, NAtomX=    13.
 Will process  14 centers per pass.
 Leave Link 1101 at Sat Apr 16 14:34:15 2016, MaxMem=   33554432 cpu:       0.0
 (Enter c:\G09w03\l1102.exe)
 Symmetrizing basis deriv contribution to polar:
 IMax=3 JMax=2 DiffMx= 0.00D+00
 Leave Link 1102 at Sat Apr 16 14:34:16 2016, MaxMem=   33554432 cpu:       0.0
 (Enter c:\G09w03\l1110.exe)
 Forming Gx(P) for the SCF density, NAtomX=    13.
 Integral derivatives from FoFDir/FoFCou, PRISM(SPDF).
 Do as many integral derivatives as possible in FoFDir.
 G2DrvN: MDV=      33554300.
 G2DrvN: will do    14 centers at a time, making    1 passes doing MaxLOS=2.
 Calling FoFCou, ICntrl=  3107 FMM=F I1Cent=   0 AccDes= 0.00D+00.
 FoFCou: FMM=F IPFlag=           0 FMFlag=      100000 FMFlg1=           0
         NFxFlg=           0 DoJE=F BraDBF=F KetDBF=F FulRan=T
         Omega=  0.000000  0.000000  1.000000  0.000000  0.000000 ICntrl=    3107 IOpCl=  0
         NMat0=    1 NMatS0=    1 NMatT0=    0 NMatD0=    1 NMtDS0=    0 NMtDT0=    0
         I1Cent=           0 NGrid=           0.
 Symmetry not used in FoFCou.
 FoFDir/FoFCou used for L=0 through L=2.
 G2PCM: DoFxE=T DoFxN=T DoGrad=T DoPD/DQ/DG=FFF NFrqRd=   0 IEInf=0 DoCFld=F IF1Alg=4.
 GePol: Maximum number of non-zero 1st derivatives   =     210
 End of G2Drv Frequency-dependent properties file   721 does not exist.
 End of G2Drv Frequency-dependent properties file   722 does not exist.
 Leave Link 1110 at Sat Apr 16 14:38:09 2016, MaxMem=   33554432 cpu:     233.0
 (Enter c:\G09w03\l1002.exe)
 Minotr:  Closed shell wavefunction.
          IDoAtm=1111111111111
 NEqPCM:  Using equilibrium solvation (IEInf=0, Eps=  78.3553, EpsInf=   1.7778)
          Direct CPHF calculation.
          Differentiating once with respect to nuclear coordinates.
          Requested convergence is 1.0D-06 RMS, and 1.0D-05 maximum.
          Secondary convergence is 1.0D-12 RMS, and 1.0D-12 maximum.
          NewPWx=T KeepS1=F KeepF1=F KeepIn=T MapXYZ=F SortEE=F KeepMc=T.
          MDV=      33554336 using IRadAn=       2.
 Generate precomputed XC quadrature information.
          Solving linear equations simultaneously, MaxMat=       0.
 Symmetry not used in FoFDir.
 MinBra= 0 MaxBra= 2 Meth= 1.
 IRaf=       0 NMat=  42 IRICut=     105 DoRegI=T DoRafI=T ISym2E= 0 JSym2E=0.
          There are    42 degrees of freedom in the 1st order CPHF.  IDoFFX=5.
     36 vectors produced by pass  0 Test12= 8.97D-11 2.38D-07 XBig12= 2.57D-01 2.98D-01.
 AX will form    36 AO Fock derivatives at one time.
     36 vectors produced by pass  1 Test12= 8.97D-11 2.38D-07 XBig12= 5.99D-02 9.35D-02.
     36 vectors produced by pass  2 Test12= 8.97D-11 2.38D-07 XBig12= 6.53D-04 4.71D-03.
     36 vectors produced by pass  3 Test12= 8.97D-11 2.38D-07 XBig12= 2.31D-06 1.82D-04.
     23 vectors produced by pass  4 Test12= 8.97D-11 2.38D-07 XBig12= 5.52D-09 1.02D-05.
      1 vectors produced by pass  5 Test12= 8.97D-11 2.38D-07 XBig12= 1.07D-11 4.43D-07.
 Inverted reduced A of dimension   168 with in-core refinement.
 End of Minotr Frequency-dependent properties file   721 does not exist.
 End of Minotr Frequency-dependent properties file   722 does not exist.
 Leave Link 1002 at Sat Apr 16 14:44:59 2016, MaxMem=   33554432 cpu:     410.0
 (Enter c:\G09w03\l601.exe)
 Copying SCF densities to generalized density rwf, IOpCl= 0 IROHF=0.

 **********************************************************************

            Population analysis using the SCF density.

 **********************************************************************

 Alpha  occ. eigenvalues --  -19.20607 -19.15575 -14.30286 -10.33306 -10.19549
 Alpha  occ. eigenvalues --  -10.16201  -1.12950  -1.04479  -0.88568  -0.75032
 Alpha  occ. eigenvalues --   -0.68242  -0.62440  -0.52649  -0.50933  -0.49623
 Alpha  occ. eigenvalues --   -0.47111  -0.43070  -0.41357  -0.40570  -0.39390
 Alpha  occ. eigenvalues --   -0.36712  -0.34466  -0.24980  -0.21517
 Alpha virt. eigenvalues --   -0.05117  -0.00963   0.00524   0.01467   0.02050
 Alpha virt. eigenvalues --    0.04389   0.04911   0.05775   0.06430   0.07116
 Alpha virt. eigenvalues --    0.07538   0.08804   0.10104   0.11107   0.11294
 Alpha virt. eigenvalues --    0.11831   0.12951   0.13026   0.13466   0.14570
 Alpha virt. eigenvalues --    0.16216   0.16732   0.17461   0.18256   0.19508
 Alpha virt. eigenvalues --    0.20525   0.22405   0.22794   0.23534   0.24549
 Alpha virt. eigenvalues --    0.25055   0.26456   0.26627   0.27543   0.27636
 Alpha virt. eigenvalues --    0.30148   0.30716   0.31860   0.32152   0.34033
 Alpha virt. eigenvalues --    0.34887   0.36519   0.39388   0.42767   0.45534
 Alpha virt. eigenvalues --    0.47168   0.51302   0.53591   0.55595   0.56846
 Alpha virt. eigenvalues --    0.59926   0.61251   0.63988   0.65031   0.66520
 Alpha virt. eigenvalues --    0.67316   0.69775   0.71683   0.73309   0.74581
 Alpha virt. eigenvalues --    0.79504   0.80312   0.86505   0.89016   0.89574
 Alpha virt. eigenvalues --    0.93173   1.03709   1.06357   1.08835   1.10895
 Alpha virt. eigenvalues --    1.11591   1.13469   1.16144   1.18818   1.21820
 Alpha virt. eigenvalues --    1.26894   1.32446   1.35342   1.39382   1.43340
 Alpha virt. eigenvalues --    1.46482   1.46829   1.50856   1.52151   1.54728
 Alpha virt. eigenvalues --    1.54979   1.59163   1.59834   1.63185   1.66752
 Alpha virt. eigenvalues --    1.67516   1.69712   1.75523   1.79369   1.82612
 Alpha virt. eigenvalues --    1.84387   1.88110   1.90062   1.96784   2.00872
 Alpha virt. eigenvalues --    2.01841   2.08748   2.12453   2.14792   2.15878
 Alpha virt. eigenvalues --    2.21749   2.34580   2.39771   2.45504   2.48351
 Alpha virt. eigenvalues --    2.51625   2.52240   2.54432   2.58442   2.60057
 Alpha virt. eigenvalues --    2.62280   2.66705   2.68735   2.73553   2.84617
 Alpha virt. eigenvalues --    2.88229   2.88985   2.92944   2.96790   2.99768
 Alpha virt. eigenvalues --    3.02247   3.03802   3.09252   3.15106   3.18962
 Alpha virt. eigenvalues --    3.23029   3.25744   3.30476   3.45351   3.51406
 Alpha virt. eigenvalues --    3.61431   3.77804   3.79730   3.82077   3.85929
 Alpha virt. eigenvalues --    4.03551   4.06302   4.31815   4.75845   4.82741
 Alpha virt. eigenvalues --    4.94942   5.00983   5.16215   5.27157   5.53203
 Alpha virt. eigenvalues --    5.80626  23.63722  23.83587  23.96152  35.61778
 Alpha virt. eigenvalues --   49.83399  49.91066
          Condensed to atoms (all electrons):
              1          2          3          4          5          6
     1  N    6.626351   0.391988   0.287032  -0.011607  -0.116831  -0.150213
     2  H    0.391988   0.442973  -0.065428  -0.009798  -0.011739   0.024331
     3  C    0.287032  -0.065428   6.793868   0.185700  -0.097291  -0.070406
     4  H   -0.011607  -0.009798   0.185700   0.490126   0.028081  -0.063472
     5  C   -0.116831  -0.011739  -0.097291   0.028081   5.480951   0.071262
     6  C   -0.150213   0.024331  -0.070406  -0.063472   0.071262   5.399066
     7  H   -0.007091   0.001046  -0.068423  -0.002463   0.402987   0.024824
     8  H    0.023181  -0.000612  -0.057310  -0.001396   0.412018  -0.026817
     9  H    0.001770  -0.001535  -0.026987  -0.000033   0.431036  -0.067045
    10  O    0.001340   0.004926  -0.486996   0.067056  -0.003936   0.490774
    11  H    0.384255  -0.052045  -0.054379   0.007224   0.024856  -0.051316
    12  O   -0.000249  -0.000995  -0.138548   0.022064   0.031523   0.271379
    13  H   -0.000244   0.000007   0.003053  -0.000537   0.004151  -0.012986
              7          8          9         10         11         12
     1  N   -0.007091   0.023181   0.001770   0.001340   0.384255  -0.000249
     2  H    0.001046  -0.000612  -0.001535   0.004926  -0.052045  -0.000995
     3  C   -0.068423  -0.057310  -0.026987  -0.486996  -0.054379  -0.138548
     4  H   -0.002463  -0.001396  -0.000033   0.067056   0.007224   0.022064
     5  C    0.402987   0.412018   0.431036  -0.003936   0.024856   0.031523
     6  C    0.024824  -0.026817  -0.067045   0.490774  -0.051316   0.271379
     7  H    0.555447  -0.020733  -0.042164   0.002266  -0.001512   0.001031
     8  H   -0.020733   0.559984  -0.033466  -0.001665  -0.000644  -0.006547
     9  H   -0.042164  -0.033466   0.584208  -0.007556   0.015096   0.000520
    10  O    0.002266  -0.001665  -0.007556   8.315553  -0.007900  -0.104000
    11  H   -0.001512  -0.000644   0.015096  -0.007900   0.491459   0.005114
    12  O    0.001031  -0.006547   0.000520  -0.104000   0.005114   7.861934
    13  H    0.000172  -0.000615  -0.000267  -0.000085  -0.000511   0.257082
             13
     1  N   -0.000244
     2  H    0.000007
     3  C    0.003053
     4  H   -0.000537
     5  C    0.004151
     6  C   -0.012986
     7  H    0.000172
     8  H   -0.000615
     9  H   -0.000267
    10  O   -0.000085
    11  H   -0.000511
    12  O    0.257082
    13  H    0.412582
 Mulliken atomic charges:
              1
     1  N   -0.429681
     2  H    0.276881
     3  C   -0.203886
     4  H    0.289056
     5  C   -0.657068
     6  C    0.160620
     7  H    0.154614
     8  H    0.154621
     9  H    0.146424
    10  O   -0.269777
    11  H    0.240304
    12  O   -0.200307
    13  H    0.338199
 Sum of Mulliken atomic charges =   0.00000
 Mulliken charges with hydrogens summed into heavy atoms:
              1
     1  N    0.087504
     3  C   -0.203886
     5  C   -0.201409
     6  C    0.160620
    10  O    0.019280
    12  O    0.137891
 Sum of Mulliken charges with hydrogens summed into heavy atoms =   0.00000
 APT atomic charges:
              1
     1  N   -1.232806
     2  H    0.656101
     3  C   -0.216113
     4  H    0.264991
     5  C   -1.294624
     6  C    0.160550
     7  H    0.461791
     8  H    0.335871
     9  H    0.346551
    10  O   -0.214398
    11  H    0.491324
    12  O   -0.541035
    13  H    0.781796
 Sum of APT charges=   0.00000
 APT Atomic charges with hydrogens summed into heavy atoms:
              1
     1  N   -0.085381
     2  H    0.000000
     3  C   -0.216113
     4  H    0.000000
     5  C   -0.150410
     6  C    0.160550
     7  H    0.000000
     8  H    0.000000
     9  H    0.000000
    10  O    0.050593
    11  H    0.000000
    12  O    0.240761
    13  H    0.000000
 Sum of APT charges=   0.00000
 Electronic spatial extent (au):  <R**2>=            600.8636
 Charge=              0.0000 electrons
 Dipole moment (field-independent basis, Debye):
    X=             -0.0991    Y=              1.6605    Z=             -0.3789  Tot=              1.7061
 Quadrupole moment (field-independent basis, Debye-Ang):
   XX=            -30.1455   YY=            -40.5211   ZZ=            -37.1207
   XY=              6.5708   XZ=             -0.4332   YZ=             -0.0180
 Traceless Quadrupole moment (field-independent basis, Debye-Ang):
   XX=              5.7836   YY=             -4.5920   ZZ=             -1.1916
   XY=              6.5708   XZ=             -0.4332   YZ=             -0.0180
 Octapole moment (field-independent basis, Debye-Ang**2):
  XXX=             22.7053  YYY=              0.8169  ZZZ=             -5.9816  XYY=             -2.9857
  XXY=              6.9444  XXZ=             -6.8203  XZZ=             -0.1245  YZZ=             -1.2857
  YYZ=              3.6947  XYZ=              1.4148
 Hexadecapole moment (field-independent basis, Debye-Ang**3):
 XXXX=           -345.2344 YYYY=           -276.4567 ZZZZ=            -93.2709 XXXY=             54.7605
 XXXZ=            -12.5742 YYYX=             21.8380 YYYZ=             -8.4037 ZZZX=              8.0779
 ZZZY=             -1.4590 XXYY=           -104.5115 XXZZ=            -79.9356 YYZZ=            -60.5185
 XXYZ=              0.8627 YYXZ=             -1.3841 ZZXY=              4.4791
 N-N= 2.462836804726D+02 E-N=-1.250881565019D+03  KE= 3.222625544567D+02
  Exact polarizability:   0.000   0.000   0.000   0.000   0.000   0.000
 Approx polarizability: 102.763  -4.171  89.136  -0.353 -11.215  72.150
 No NMR shielding tensors so no spin-rotation constants.
 Leave Link  601 at Sat Apr 16 14:44:59 2016, MaxMem=   33554432 cpu:       0.0
 (Enter c:\G09w03\l701.exe)
 Compute integral second derivatives.
 ... and contract with generalized density number  0.
 D2PCM: C-PCM CHGder 2nd derivatives, FixD1E=F FixD2E=F DoIter=F DoCFld=F I1PDM=0
 GePol: Maximum number of non-zero 2nd derivatives   =     210
 Leave Link  701 at Sat Apr 16 14:45:26 2016, MaxMem=   33554432 cpu:      27.0
 (Enter c:\G09w03\l702.exe)
 L702 exits ... SP integral derivatives will be done elsewhere.
 Leave Link  702 at Sat Apr 16 14:45:26 2016, MaxMem=   33554432 cpu:       0.0
 (Enter c:\G09w03\l703.exe)
 Compute integral second derivatives, UseDBF=F ICtDFT=           0.
 Integral derivatives from FoFDir, PRISM(SPDF).
 Calling FoFJK, ICntrl=    100147 FMM=F ISym2X=0 I1Cent= 0 IOpClX= 0 NMat=1 NMatS=1 NMatT=0.
 FoFCou: FMM=F IPFlag=           0 FMFlag=      100000 FMFlg1=         800
         NFxFlg=           0 DoJE=F BraDBF=F KetDBF=F FulRan=T
         Omega=  0.000000  0.000000  1.000000  0.000000  0.000000 ICntrl=  100147 IOpCl=  0
         NMat0=    1 NMatS0=    1 NMatT0=    0 NMatD0=    1 NMtDS0=    0 NMtDT0=    0
         I1Cent=           0 NGrid=           0.
 Symmetry not used in FoFCou.
 Leave Link  703 at Sat Apr 16 14:53:16 2016, MaxMem=   33554432 cpu:     470.0
 (Enter c:\G09w03\l716.exe)
 Dipole        =-3.89757431D-02 6.53306122D-01-1.49079656D-01
 Polarizability= 0.00000000D+00 0.00000000D+00 0.00000000D+00
                 0.00000000D+00 0.00000000D+00 0.00000000D+00
 -------------------------------------------------------------------
 Center     Atomic                   Forces (Hartrees/Bohr)
 Number     Number              X              Y              Z
 -------------------------------------------------------------------
      1        7           0.009649986   -0.004666741   -0.001901930
      2        1          -0.002503389    0.004372642   -0.000581676
      3        6          -0.001292176   -0.002496025   -0.001929684
      4        1           0.011024215    0.008901604   -0.006056904
      5        6          -0.000984876    0.001982520   -0.000738919
      6        6           0.024134247   -0.008148531    0.006396029
      7        1           0.001670945    0.000130024   -0.001021532
      8        1          -0.000659540   -0.001293255   -0.000328531
      9        1           0.000420785   -0.001155165    0.001553444
     10        8          -0.021362919    0.018804966   -0.009329074
     11        1          -0.002698087    0.002024995    0.003738945
     12        8          -0.006109905   -0.016195233    0.009013733
     13        1          -0.011289287   -0.002261798    0.001186098
 -------------------------------------------------------------------
 Cartesian Forces:  Max     0.024134247 RMS     0.008063467
 Force constants in Cartesian coordinates: 
                1             2             3             4             5 
      1  0.356480D+00
      2  0.258556D+00  0.408707D+00
      3  0.419008D-01 -0.151189D+00  0.628249D+00
      4 -0.183042D+00 -0.185804D+00  0.127244D+00  0.191285D+00
      5 -0.160319D+00 -0.154932D+00  0.119130D+00  0.175397D+00  0.176791D+00
      6  0.118351D+00  0.131562D+00 -0.168693D+00 -0.121850D+00 -0.127315D+00
      7 -0.865164D-01 -0.291036D-01 -0.367932D-01 -0.973541D-02 -0.135149D-01
      8 -0.802560D-01 -0.139210D+00 -0.880391D-01  0.424848D-02 -0.128302D-01
      9 -0.411600D-01 -0.494958D-01 -0.878350D-01  0.423164D-03  0.588974D-02
     10 -0.806356D-02  0.113993D-01 -0.357500D-01  0.448229D-02  0.205357D-02
     11  0.368705D-04 -0.303916D-02  0.855429D-02 -0.961285D-03 -0.672381D-03
     12 -0.126123D-02 -0.158305D-02 -0.156176D-02 -0.956752D-03 -0.271391D-03
     13  0.843273D-02 -0.203913D-01 -0.627167D-02  0.852586D-03 -0.754613D-03
     14  0.657599D-02 -0.297048D-01 -0.735386D-02  0.113380D-02 -0.112454D-02
     15  0.306254D-02 -0.231106D-01 -0.274118D-02 -0.193360D-03  0.356028D-03
     16 -0.201631D-01 -0.352792D-01  0.347837D-01 -0.607027D-02 -0.607003D-03
     17 -0.225047D-01 -0.108365D-01 -0.279256D-02 -0.367540D-02 -0.367089D-03
     18 -0.214545D-01 -0.468765D-02 -0.912893D-02 -0.825640D-03 -0.322410D-03
     19  0.200903D-02  0.408844D-04 -0.904354D-03  0.193267D-04  0.229082D-03
     20 -0.876551D-03  0.260464D-02  0.121473D-02 -0.233039D-03 -0.290859D-03
     21 -0.420124D-03 -0.494481D-04  0.107918D-03  0.201528D-03 -0.995546D-04
     22  0.770535D-04  0.354324D-02  0.955442D-03 -0.103503D-03  0.297306D-03
     23  0.293391D-02 -0.730748D-02 -0.218356D-02  0.143865D-03  0.150265D-03
     24  0.318423D-03 -0.181998D-02  0.136054D-02  0.265298D-03 -0.328986D-03
     25  0.581020D-03 -0.191631D-02  0.186097D-02 -0.553563D-04 -0.603495D-05
     26 -0.104663D-03  0.308989D-02  0.473333D-03 -0.204983D-03  0.688424D-04
     27  0.114831D-02  0.104415D-02  0.289378D-02  0.881469D-04  0.137911D-03
     28 -0.356078D-04 -0.100809D-02  0.380852D-02 -0.218726D-02 -0.399525D-03
     29 -0.366256D-02 -0.711291D-02  0.221864D-01 -0.355431D-02 -0.467553D-03
     30 -0.491569D-03  0.755156D-02 -0.108924D-01  0.264785D-02  0.527088D-03
     31 -0.662880D-01  0.193392D-02 -0.130908D+00  0.588657D-02 -0.215666D-02
     32 -0.625677D-03 -0.654305D-01  0.104717D+00  0.132485D-01 -0.628647D-02
     33 -0.102234D+00  0.919239D-01 -0.353304D+00 -0.765704D-02  0.247614D-02
     34 -0.326559D-02 -0.789697D-03 -0.151215D-02 -0.122173D-02 -0.245600D-03
     35  0.111700D-04  0.310041D-02 -0.461714D-02  0.244110D-03 -0.355996D-04
     36  0.623154D-03 -0.190305D-02  0.311597D-02  0.395392D-04 -0.200503D-03
     37 -0.205868D-03 -0.118026D-02  0.158540D-02 -0.110293D-03  0.266092D-04
     38  0.235457D-03  0.712881D-04 -0.100262D-03  0.182027D-04 -0.343814D-05
     39  0.161751D-02  0.175718D-02 -0.157142D-02  0.573508D-03  0.213447D-04
                6             7             8             9            10 
      6  0.172299D+00
      7 -0.167691D-01  0.568752D+00
      8 -0.131590D-01 -0.465646D-01  0.395157D+00
      9  0.806300D-02  0.365735D-01  0.106255D+00  0.194553D+00
     10  0.169751D-02 -0.214719D-01 -0.737060D-01  0.484392D-01 -0.108441D+00
     11 -0.257545D-02 -0.119853D-02  0.163668D-01 -0.813284D-02  0.804047D-01
     12  0.514569D-03  0.743518D-02  0.117797D-01 -0.325404D-01  0.888952D-02
     13 -0.806193D-03 -0.114835D+00  0.529739D-01  0.117054D-01 -0.381727D-02
     14 -0.301197D-03  0.523252D-01 -0.155813D+00 -0.144813D-01  0.480696D-03
     15 -0.686831D-04  0.164480D-02  0.701490D-02 -0.704545D-01  0.164118D-01
     16 -0.100104D-02 -0.244386D+00  0.761314D-01 -0.585782D-01  0.113902D+00
     17 -0.305733D-02 -0.106562D-01 -0.986529D-01  0.671362D-02 -0.865083D-01
     18  0.506712D-04  0.201250D-01 -0.820136D-02 -0.519556D-01  0.345746D-01
     19  0.433940D-03 -0.166441D-01 -0.125415D-02  0.625307D-02  0.764850D-03
     20  0.103164D-03  0.272368D-01  0.288218D-02 -0.154957D-01  0.567973D-03
     21 -0.119143D-03  0.107817D-02 -0.315550D-03  0.203813D-03 -0.113185D-02
     22  0.120710D-03  0.100712D-01  0.102515D-01  0.845338D-02 -0.156603D-03
     23 -0.245376D-03 -0.169410D-01 -0.131579D-01 -0.111162D-01 -0.137008D-03
     24 -0.175183D-03 -0.727236D-03  0.123323D-03 -0.251311D-02 -0.469596D-03
     25  0.102284D-03 -0.847702D-02  0.123230D-01 -0.168947D-01  0.456118D-02
     26 -0.173128D-03  0.124576D-01 -0.168257D-01  0.240874D-01 -0.537507D-02
     27 -0.832216D-04 -0.330305D-02 -0.675141D-03  0.673217D-02 -0.222255D-04
     28 -0.193293D-02 -0.568415D-01  0.863363D-01 -0.940281D-02  0.386018D-01
     29 -0.384974D-03  0.495385D-01  0.331295D-01 -0.364443D-01  0.729258D-01
     30  0.762885D-03 -0.252112D-02 -0.195729D-01  0.365405D-01 -0.623607D-01
     31  0.239084D-01 -0.133438D-01 -0.740794D-03 -0.857808D-02 -0.398233D-02
     32  0.160152D-01 -0.130250D-01  0.268767D-02 -0.273018D-01 -0.750301D-03
     33 -0.129707D-01 -0.128460D-01 -0.180043D-02 -0.100023D-01 -0.109125D-02
     34 -0.206317D-02 -0.117738D-01 -0.394768D-01  0.250180D-01 -0.146452D-01
     35 -0.311776D-03 -0.104585D-01 -0.918719D-02  0.142391D-01  0.405052D-02
     36  0.130406D-03  0.759965D-02  0.517130D-02  0.220505D-02 -0.669818D-02
     37 -0.191131D-03  0.520135D-02 -0.266098D-03 -0.225193D-02 -0.173457D-02
     38 -0.156766D-03 -0.957682D-04 -0.454621D-02  0.528258D-02 -0.540581D-02
     39  0.289638D-03 -0.149667D-02  0.141881D-02  0.700335D-02 -0.248886D-02
               11            12            13            14            15 
     11  0.374108D-01
     12 -0.453408D-01  0.771554D-01
     13  0.113025D-02  0.381457D-03  0.531218D+00
     14 -0.186813D-02 -0.339655D-03  0.480268D-01  0.482491D+00
     15 -0.770151D-02  0.265451D-02  0.316286D-02  0.115030D-01  0.519337D+00
     16 -0.495634D-01 -0.420896D-02 -0.159130D-01  0.948449D-02  0.382977D-02
     17 -0.857109D-02  0.395525D-01  0.283100D-01  0.208093D-02  0.833049D-04
     18  0.358275D-01 -0.309711D-01  0.132386D-02  0.249441D-02 -0.685528D-02
     19 -0.181000D-03 -0.212014D-03 -0.220871D+00 -0.384763D-01  0.111950D+00
     20 -0.186399D-03  0.328872D-03 -0.392091D-01 -0.521996D-01  0.225762D-01
     21  0.123638D-04  0.531819D-03  0.112137D+00  0.230035D-01 -0.115345D+00
     22  0.255530D-03 -0.238036D-03 -0.121441D+00 -0.947467D-01 -0.669356D-01
     23 -0.302266D-03  0.142093D-03 -0.920892D-01 -0.169500D+00 -0.845696D-01
     24  0.409736D-04  0.901778D-04 -0.659295D-01 -0.854242D-01 -0.105687D+00
     25 -0.249965D-02  0.271517D-03 -0.608625D-01  0.207656D-01 -0.567031D-01
     26  0.256312D-02 -0.468722D-03  0.205034D-01 -0.774184D-01  0.780883D-01
     27 -0.117116D-02  0.173192D-03 -0.537946D-01  0.733254D-01 -0.234398D+00
     28 -0.311396D-01 -0.175185D-01 -0.473773D-02 -0.321148D-02 -0.186880D-01
     29 -0.392845D-01 -0.117014D-01  0.130139D-02  0.192283D-02 -0.458499D-03
     30  0.207193D-01 -0.203932D-01 -0.289605D-02 -0.271735D-02  0.115485D-01
     31 -0.500017D-03  0.496041D-03  0.808133D-03 -0.109670D-03  0.229727D-02
     32  0.388023D-04 -0.145814D-02 -0.681798D-03  0.257574D-02 -0.174607D-02
     33 -0.183026D-02 -0.127279D-02  0.127759D-02  0.345870D-03  0.163947D-02
     34  0.447044D-02  0.689989D-02  0.879962D-03 -0.247242D-02  0.107578D-03
     35 -0.374030D-02  0.733669D-02  0.616287D-03 -0.121132D-02 -0.209802D-02
     36  0.146858D-02  0.492351D-02 -0.334558D-03  0.317560D-03  0.238606D-03
     37 -0.254278D-03  0.218617D-04  0.285907D-03  0.224083D-03  0.529769D-04
     38  0.128473D-02  0.202329D-02  0.263961D-03 -0.230331D-03  0.626572D-04
     39  0.128909D-03  0.696125D-03  0.444097D-04 -0.372126D-03  0.131906D-03
               16            17            18            19            20 
     16  0.566870D+00
     17  0.355533D-01  0.521196D+00
     18 -0.285360D-01 -0.139211D+00  0.279740D+00
     19  0.405848D-03  0.234098D-02  0.130328D-02  0.241651D+00
     20 -0.695045D-03 -0.472726D-02 -0.267799D-02  0.382358D-01  0.579447D-01
     21  0.657729D-03 -0.889711D-03 -0.245749D-04 -0.122876D+00 -0.262508D-01
     22 -0.222008D-03 -0.138583D-03  0.772102D-03 -0.133520D-01 -0.173866D-01
     23 -0.150935D-02 -0.490383D-03 -0.686089D-04 -0.231608D-02 -0.373904D-02
     24 -0.395314D-03 -0.117020D-02  0.473944D-03  0.823534D-02  0.125780D-01
     25  0.139625D-02  0.267220D-02 -0.210883D-02  0.742603D-02 -0.928433D-02
     26 -0.342024D-02 -0.238565D-02  0.224775D-02  0.128017D-02 -0.257225D-02
     27  0.395118D-02  0.858361D-03  0.269330D-03 -0.409318D-02  0.548423D-02
     28 -0.214109D+00  0.140294D+00 -0.429799D-01 -0.126357D-02  0.124453D-02
     29  0.367227D-01 -0.203713D+00  0.585736D-01 -0.108597D-03 -0.525997D-03
     30 -0.671802D-02  0.428519D-01 -0.887296D-01 -0.278063D-03  0.197138D-02
     31  0.112279D-01 -0.384008D-03 -0.470756D-02  0.164100D-03 -0.339747D-04
     32  0.445946D-02 -0.168274D-02 -0.259926D-02  0.813134D-04 -0.157956D-03
     33  0.581256D-02 -0.581657D-03 -0.253248D-03  0.196795D-03 -0.645118D-04
     34 -0.163340D+00 -0.806827D-01  0.400247D-01 -0.445456D-03  0.459154D-03
     35 -0.323486D-01 -0.191473D+00  0.636889D-01  0.123239D-03  0.767492D-03
     36  0.243094D-01  0.603657D-01 -0.931209D-01  0.166123D-04  0.791618D-04
     37 -0.295998D-01 -0.462062D-02  0.248883D-02  0.135946D-03 -0.256633D-04
     38 -0.389284D-01 -0.377569D-03 -0.506415D-02  0.468640D-05  0.200366D-03
     39  0.260932D-01 -0.272318D-02  0.505300D-03 -0.261380D-04  0.153254D-03
               21            22            23            24            25 
     21  0.122459D+00
     22 -0.137269D-01  0.129630D+00
     23 -0.175932D-02  0.102355D+00  0.184707D+00
     24  0.889795D-02  0.735384D-01  0.944440D-01  0.110816D+00
     25  0.238183D-01 -0.465382D-02  0.666636D-02 -0.152009D-01  0.650739D-01
     26  0.559817D-02 -0.481209D-02  0.872504D-02 -0.197647D-01 -0.284078D-01
     27 -0.161322D-01 -0.309368D-02  0.498904D-02 -0.133936D-01  0.618046D-01
     28  0.625418D-03  0.749087D-03  0.291022D-03  0.614308D-03 -0.539076D-02
     29  0.413921D-03  0.000000D+00 -0.314830D-03  0.368237D-04  0.300470D-04
     30 -0.507794D-03 -0.324702D-04  0.122354D-04 -0.331020D-03  0.225798D-02
     31  0.266630D-05 -0.188105D-03  0.140057D-03 -0.210643D-03  0.568107D-03
     32  0.184654D-03  0.169409D-03  0.357838D-04  0.655291D-03  0.356079D-03
     33 -0.228692D-03  0.751862D-04  0.474354D-03  0.411041D-03  0.489030D-03
     34 -0.407024D-03 -0.302189D-03  0.446854D-03 -0.834175D-04 -0.231756D-03
     35  0.169089D-03  0.240960D-03  0.100500D-02  0.476646D-03 -0.704479D-03
     36  0.175278D-03  0.108116D-03 -0.217061D-03  0.915657D-05  0.202186D-03
     37  0.409119D-04 -0.108158D-03  0.160561D-04  0.448016D-04  0.647213D-04
     38 -0.173221D-04 -0.282021D-04  0.189001D-03  0.152947D-03  0.532083D-05
     39 -0.179155D-04  0.329080D-05  0.979469D-04  0.409087D-04  0.100815D-03
               26            27            28            29            30 
     26  0.843439D-01
     27 -0.856923D-01  0.255297D+00
     28  0.740512D-02 -0.136206D-02  0.218203D+00
     29 -0.104573D-02  0.162961D-02 -0.172652D+00  0.258628D+00
     30 -0.272288D-02 -0.559625D-03  0.848297D-01 -0.789361D-01  0.826059D-01
     31 -0.623681D-03 -0.543601D-04 -0.237413D-02  0.610305D-02 -0.250726D-02
     32 -0.161608D-03  0.114223D-02 -0.104594D-02  0.173357D-02  0.863435D-03
     33 -0.102217D-02 -0.828255D-03 -0.178952D-02  0.238757D-02  0.305337D-03
     34  0.154222D-02 -0.132023D-02  0.250814D-01  0.865093D-02 -0.924774D-02
     35  0.153126D-02 -0.885532D-03 -0.304643D-01 -0.465812D-01  0.350218D-01
     36 -0.768691D-03  0.216846D-03  0.538144D-02  0.430554D-01 -0.680558D-02
     37 -0.239978D-03  0.511848D-04  0.430381D-02  0.470515D-02 -0.268260D-02
     38  0.872513D-04 -0.186876D-03  0.434977D-02  0.363249D-02 -0.556952D-02
     39  0.117555D-03 -0.187451D-03 -0.158575D-02 -0.358176D-03 -0.354392D-02
               31            32            33            34            35 
     31  0.689523D-01
     32 -0.178164D-02  0.672719D-01
     33  0.118951D+00 -0.912366D-01  0.376754D+00
     34 -0.188027D-02 -0.582960D-03 -0.131574D-02  0.603580D+00
     35 -0.194828D-02 -0.575313D-03 -0.864425D-03  0.376603D-01  0.292278D+00
     36  0.136357D-02  0.823831D-03  0.759234D-04  0.245474D-01 -0.132937D+00
     37  0.449481D-03  0.178601D-03  0.131657D-03 -0.432436D+00  0.329776D-01
     38  0.101689D-03 -0.489753D-04 -0.207789D-03  0.710202D-01 -0.458782D-01
     39 -0.536042D-04 -0.597216D-04 -0.326172D-03 -0.806481D-01  0.207821D-01
               36            37            38            39 
     36  0.125535D+00
     37 -0.571583D-01  0.453753D+00
     38  0.247451D-01 -0.315412D-01  0.456196D-01
     39 -0.366997D-01  0.578664D-01 -0.209639D-01  0.336794D-01
 Leave Link  716 at Sat Apr 16 14:53:16 2016, MaxMem=   33554432 cpu:       0.0
 (Enter c:\G09w03\l103.exe)

 GradGradGradGradGradGradGradGradGradGradGradGradGradGradGradGradGradGrad
 Berny optimization.
 Red2BG is reusing G-inverse.
 Internal  Forces:  Max     0.027037635 RMS     0.005541549
 Search for a saddle point.
 Step number   1 out of a maximum of   69
 All quantities printed in internal units (Hartrees-Bohrs-Radians)
 Swaping is turned off.
 Second derivative matrix not updated -- analytic derivatives used.
 ITU=  0
     Eigenvalues ---   -0.11239   0.00151   0.00188   0.00458   0.00597
     Eigenvalues ---    0.00986   0.01785   0.01936   0.03385   0.04242
     Eigenvalues ---    0.04406   0.04600   0.05080   0.08334   0.11421
     Eigenvalues ---    0.11684   0.12298   0.13627   0.14365   0.15292
     Eigenvalues ---    0.15995   0.17697   0.26717   0.29276   0.31090
     Eigenvalues ---    0.32610   0.33270   0.34487   0.35092   0.42286
     Eigenvalues ---    0.44013   0.46590   0.46672
 Eigenvectors required to have negative eigenvalues:
                          R8        R4        D24       D19       D18
   1                    0.61032  -0.51287   0.25383  -0.23500  -0.16053
                          R12       D21       R6        A18       D25
   1                   -0.15843  -0.15789   0.15469   0.15074  -0.12322
 RFO step:  Lambda0=1.900702827D-05 Lambda=-9.67521934D-03.
 Linear search not attempted -- option 19 set.
 Iteration  1 RMS(Cart)=  0.06373282 RMS(Int)=  0.01574034
 Iteration  2 RMS(Cart)=  0.01428148 RMS(Int)=  0.00964200
 Iteration  3 RMS(Cart)=  0.00084933 RMS(Int)=  0.00961999
 Iteration  4 RMS(Cart)=  0.00005593 RMS(Int)=  0.00961992
 Iteration  5 RMS(Cart)=  0.00000347 RMS(Int)=  0.00961992
 Iteration  6 RMS(Cart)=  0.00000022 RMS(Int)=  0.00961992
 Variable       Old X    -DE/DX   Delta X   Delta X   Delta X     New X
                                 (Linear)    (Quad)   (Total)
    R1        1.90593  -0.00132   0.00000   0.00798   0.00798   1.91391
    R2        2.74447  -0.00388   0.00000   0.02054   0.02054   2.76501
    R3        1.91986  -0.00213   0.00000   0.00656   0.00656   1.92642
    R4        3.02147  -0.00288   0.00000  -0.06239  -0.06270   2.95877
    R5        2.86341  -0.00056   0.00000  -0.00137  -0.00137   2.86204
    R6        2.72052  -0.00249   0.00000  -0.00281  -0.00291   2.71761
    R7        3.07623  -0.00799   0.00000  -0.10171  -0.10192   2.97431
    R8        2.43576  -0.00984   0.00000  -0.07547  -0.07431   2.36144
    R9        2.07259  -0.00196   0.00000  -0.00511  -0.00511   2.06748
   R10        2.07113  -0.00141   0.00000  -0.00444  -0.00444   2.06669
   R11        2.08529  -0.00192   0.00000  -0.00502  -0.00502   2.08027
   R12        2.49246  -0.02404   0.00000  -0.05911  -0.05950   2.43296
   R13        2.53859  -0.02704   0.00000  -0.06139  -0.06139   2.47720
   R14        1.85558  -0.01073   0.00000  -0.02030  -0.02030   1.83529
    A1        2.04462  -0.00221   0.00000  -0.11954  -0.14397   1.90065
    A2        1.97795   0.00049   0.00000  -0.08172  -0.13549   1.84245
    A3        2.03733  -0.00233   0.00000  -0.10891  -0.13323   1.90410
    A4        1.55096   0.00165   0.00000   0.04247   0.04247   1.59343
    A5        2.04414  -0.00127   0.00000  -0.00613  -0.00621   2.03793
    A6        1.96842  -0.00023   0.00000  -0.00686  -0.00637   1.96205
    A7        2.52358  -0.00002   0.00000  -0.01655  -0.01670   2.50688
    A8        2.07421   0.00169   0.00000   0.00403   0.00356   2.07777
    A9        1.82365  -0.00631   0.00000   0.02949   0.02954   1.85319
   A10        1.91701  -0.00020   0.00000   0.00032   0.00032   1.91733
   A11        1.95800  -0.00023   0.00000  -0.00011  -0.00011   1.95789
   A12        1.95695  -0.00036   0.00000  -0.00255  -0.00255   1.95440
   A13        1.87954   0.00014   0.00000  -0.00171  -0.00171   1.87782
   A14        1.87017   0.00018   0.00000  -0.00010  -0.00010   1.87007
   A15        1.87836   0.00052   0.00000   0.00422   0.00422   1.88258
   A16        1.95880   0.00110   0.00000  -0.00619  -0.00677   1.95203
   A17        2.21394  -0.00100   0.00000  -0.00539  -0.00658   2.20736
   A18        2.85371  -0.00105   0.00000  -0.02396  -0.02427   2.82944
   A19        2.10427  -0.00006   0.00000   0.01119   0.01289   2.11716
   A20        1.96008  -0.00790   0.00000  -0.02691  -0.02691   1.93316
    D1        1.21991   0.00344   0.00000   0.24613   0.23173   1.45164
    D2       -1.48399   0.00288   0.00000   0.22846   0.21299  -1.27100
    D3        2.29610   0.00194   0.00000   0.23957   0.22412   2.52022
    D4       -2.63450  -0.00188   0.00000  -0.21008  -0.19427  -2.82877
    D5        0.94479  -0.00244   0.00000  -0.22775  -0.21301   0.73178
    D6       -1.55831  -0.00338   0.00000  -0.21664  -0.20188  -1.76019
    D7        1.86642  -0.00090   0.00000  -0.06150  -0.06210   1.80431
    D8       -1.98418  -0.00040   0.00000  -0.01183  -0.01241  -1.99659
    D9        1.10778   0.00034   0.00000   0.02153   0.02142   1.12920
   D10       -3.08567   0.00023   0.00000   0.01952   0.01941  -3.06626
   D11       -0.96951   0.00047   0.00000   0.02308   0.02297  -0.94655
   D12       -1.21349  -0.00095   0.00000  -0.04303  -0.04306  -1.25655
   D13        0.87624  -0.00105   0.00000  -0.04504  -0.04507   0.83117
   D14        2.99240  -0.00081   0.00000  -0.04148  -0.04152   2.95088
   D15       -2.71191   0.00052   0.00000   0.00537   0.00551  -2.70640
   D16       -0.62218   0.00041   0.00000   0.00335   0.00349  -0.61868
   D17        1.49398   0.00066   0.00000   0.00691   0.00705   1.50103
   D18       -1.18333   0.00053   0.00000  -0.00684  -0.00711  -1.19044
   D19        2.07805   0.00012   0.00000  -0.00394  -0.00362   2.07443
   D20        2.60876   0.00077   0.00000   0.00863   0.00831   2.61707
   D21       -0.41305   0.00036   0.00000   0.01153   0.01180  -0.40124
   D22       -2.94733   0.00175   0.00000   0.04322   0.04299  -2.90434
   D23        2.90094  -0.00089   0.00000  -0.03768  -0.03760   2.86334
   D24        0.81009   0.00088   0.00000   0.05253   0.05152   0.86162
   D25       -0.11183  -0.00139   0.00000  -0.03337  -0.03245  -0.14427
         Item               Value     Threshold  Converged?
 Maximum Force            0.027038     0.000450     NO 
 RMS     Force            0.005542     0.000300     NO 
 Maximum Displacement     0.281945     0.001800     NO 
 RMS     Displacement     0.072783     0.001200     NO 
 Predicted change in Energy=-6.628827D-03
 GradGradGradGradGradGradGradGradGradGradGradGradGradGradGradGradGradGrad

 Leave Link  103 at Sat Apr 16 14:53:16 2016, MaxMem=   33554432 cpu:       0.0
 (Enter c:\G09w03\l202.exe)
                          Input orientation:                          
 ---------------------------------------------------------------------
 Center     Atomic      Atomic             Coordinates (Angstroms)
 Number     Number       Type             X           Y           Z
 ---------------------------------------------------------------------
      1          7           0       -1.245682   -1.194518   -0.556886
      2          1           0       -1.995372   -1.597264   -0.007776
      3          6           0       -0.626603   -0.111858    0.208286
      4          1           0        0.270417   -1.129468    0.990137
      5          6           0       -1.424436    1.167972    0.347141
      6          6           0        0.792851   -0.029869   -0.007472
      7          1           0       -2.335204    0.977498    0.922640
      8          1           0       -0.863126    1.950151    0.865973
      9          1           0       -1.735717    1.567515   -0.630253
     10          8           0        1.412288   -1.043011    0.489926
     11          1           0       -1.692911   -0.803902   -1.385509
     12          8           0        1.447031    0.988705   -0.510421
     13          1           0        2.397887    0.910824   -0.328697
 ---------------------------------------------------------------------
                    Distance matrix (angstroms):
                    1          2          3          4          5
     1  N    0.000000
     2  H    1.012799   0.000000
     3  C    1.463180   2.031413   0.000000
     4  H    2.167041   2.519615   1.565716   0.000000
     5  C    2.535858   2.845780   1.514524   2.926466   0.000000
     6  C    2.411198   3.198580   1.438097   1.573938   2.544982
     7  H    2.844945   2.758725   2.148562   3.351585   1.094065
     8  H    3.472725   3.824862   2.177241   3.283960   1.093645
     9  H    2.806125   3.235850   2.180270   3.731482   1.100831
    10  O    2.860694   3.488130   2.259081   1.249623   3.599422
    11  H    1.019417   1.618349   2.038656   3.099088   2.638644
    12  O    3.466889   4.334746   2.455145   2.850044   3.002144
    13  H    4.214276   5.068946   3.237556   3.229279   3.890119
                    6          7          8          9         10
     6  C    0.000000
     7  H    3.415351   0.000000
     8  H    2.725004   1.765298   0.000000
     9  H    3.055020   1.766064   1.773843   0.000000
    10  O    1.287465   4.279416   3.778617   4.240234   0.000000
    11  H    2.945696   2.985545   3.652741   2.489148   3.635477
    12  O    1.310878   4.044637   2.855812   3.237170   2.264900
    13  H    1.887917   4.896165   3.625140   4.196291   2.336455
                   11         12         13
    11  H    0.000000
    12  O    3.720008   0.000000
    13  H    4.559799   0.971193   0.000000
 Symmetry turned off by external request.
 Stoichiometry    C3H7NO2
 Framework group  C1[X(C3H7NO2)]
 Deg. of freedom    33
 Full point group                 C1      NOp   1
 Rotational constants (GHZ):      4.9862044      3.0715279      2.2236980
 Leave Link  202 at Sat Apr 16 14:53:16 2016, MaxMem=   33554432 cpu:       0.0
 (Enter c:\G09w03\l301.exe)
 Standard basis: 6-311++G(d,p) (5D, 7F)
 Ernie: Thresh=  0.10000D-02 Tol=  0.10000D-05 Strict=F.
 Integral buffers will be    262144 words long.
 Raffenetti 2 integral format.
 Two-electron integral symmetry is turned off.
   181 basis functions,   279 primitive gaussians,   187 cartesian basis functions
    24 alpha electrons       24 beta electrons
       nuclear repulsion energy       248.7992268499 Hartrees.
 IExCor=  402 DFT=T Ex+Corr=B3LYP ExCW=0 ScaHFX=  0.200000
 ScaDFX=  0.800000  0.720000  1.000000  0.810000 ScalE2=  1.000000  1.000000
 IRadAn=      0 IRanWt=     -1 IRanGd=            0 ICorTp=0
 NAtoms=   13 NActive=   13 NUniq=   13 SFac= 1.00D+00 NAtFMM=   50 NAOKFM=F Big=F
 ------------------------------------------------------------------------------
 Polarizable Continuum Model (PCM)
 =================================
 Model                : C-PCM.
 Atomic radii         : UFF (Universal Force Field).
 Polarization charges : Total charges.
 Charge compensation  : None.
 Solution method      : Matrix inversion.
 Cavity type          : Scaled VdW (van der Waals Surface) (Alpha=1.100).
 Cavity algorithm     : GePol (No added spheres)
                        Default sphere list used, NSphG=   13.
                        Lebedev-Laikov grids with approx.  5.0 points / Ang**2.
                        Smoothing algorithm: Karplus/York (Gamma=1.0000).
                        Polarization charges: spherical gaussians, with
                                              point-specific exponents (IZeta= 3).
                        Self-potential: point-specific (ISelfS= 7).
                        Self-field    : sphere-specific E.n sum rule (ISelfD= 2).
 1st derivatives      : Analytical E(r).r(x)/FMM algorithm (CHGder, D1EAlg=3).
                        Cavity 1st derivative terms included.
 Solvent              : Water, Eps=  78.355300 Eps(inf)=   1.777849
 ------------------------------------------------------------------------------
 Spheres list:
 ISph  on   Nord    Re0     Alpha      Xe            Ye            Ze
    1   N      1    1.830   1.100     -1.245682     -1.194518     -0.556886
    2   H      2    1.443   1.100     -1.995372     -1.597264     -0.007776
    3   C      3    1.926   1.100     -0.626603     -0.111858      0.208286
    4   H      4    1.443   1.100      0.270417     -1.129468      0.990137
    5   C      5    1.926   1.100     -1.424436      1.167972      0.347141
    6   C      6    1.926   1.100      0.792851     -0.029869     -0.007472
    7   H      7    1.443   1.100     -2.335204      0.977498      0.922640
    8   H      8    1.443   1.100     -0.863126      1.950151      0.865973
    9   H      9    1.443   1.100     -1.735717      1.567515     -0.630253
   10   O     10    1.750   1.100      1.412288     -1.043011      0.489926
   11   H     11    1.443   1.100     -1.692911     -0.803902     -1.385509
   12   O     12    1.750   1.100      1.447031      0.988705     -0.510421
   13   H     13    1.443   1.100      2.397887      0.910824     -0.328697
 ------------------------------------------------------------------------------
 GePol: Number of generator spheres                  =      13
 GePol: Total number of spheres                      =      13
 GePol: Number of exposed spheres                    =      13 (100.00%)
 GePol: Number of points                             =    1117
 GePol: Average weight of points                     =       0.13
 GePol: Minimum weight of points                     =   0.36D-11
 GePol: Maximum weight of points                     =    0.20577
 GePol: Number of points with low weight             =      57
 GePol: Fraction of low-weight points (<1% of avg)   =       5.10%
 GePol: Cavity surface area                          =    150.282 Ang**2
 GePol: Cavity volume                                =    137.572 Ang**3
 Leave Link  301 at Sat Apr 16 14:53:17 2016, MaxMem=   33554432 cpu:       0.0
 (Enter c:\G09w03\l302.exe)
 NPDir=0 NMtPBC=     1 NCelOv=     1 NCel=       1 NClECP=     1 NCelD=      1
         NCelK=      1 NCelE2=     1 NClLst=     1 CellRange=     0.0.
 One-electron integrals computed using PRISM.
 NBasis=   181 RedAO= T  NBF=   181
 NBsUse=   181 1.00D-06 NBFU=   181
 Precomputing XC quadrature grid using
 IXCGrd= 2 IRadAn=           0 IRanWt=          -1 IRanGd=           0 AccXCQ= 0.00D+00.
 NRdTot=     842 NPtTot=      107058 NUsed=      110990 NTot=      111006
 NSgBfM=   187   187   187   187   187 NAtAll=    13    13.
 Leave Link  302 at Sat Apr 16 14:53:17 2016, MaxMem=   33554432 cpu:       0.0
 (Enter c:\G09w03\l303.exe)
 DipDrv:  MaxL=1.
 Leave Link  303 at Sat Apr 16 14:53:17 2016, MaxMem=   33554432 cpu:       0.0
 (Enter c:\G09w03\l401.exe)
 Initial guess read from the read-write file.
 B after Tr=     0.000000    0.000000    0.000000
         Rot=    1.000000    0.000000    0.000000    0.000000 Ang=   0.00 deg.
 Guess basis will be translated and rotated to current coordinates.
 Generating alternative initial guess.
 Harris functional with IExCor=  402 diagonalized for initial guess.
 ExpMin= 3.60D-02 ExpMax= 8.59D+03 ExpMxC= 1.30D+03 IAcc=3 IRadAn=         0 AccDes= 0.00D+00
 HarFok:  IExCor=  402 AccDes= 0.00D+00 IRadAn=         0 IDoV= 1
 ScaDFX=  1.000000  1.000000  1.000000  1.000000
 FoFCou: FMM=F IPFlag=           0 FMFlag=      100000 FMFlg1=           0
         NFxFlg=           0 DoJE=T BraDBF=F KetDBF=T FulRan=T
         Omega=  0.000000  0.000000  1.000000  0.000000  0.000000 ICntrl=     500 IOpCl=  0
         NMat0=    1 NMatS0=    1 NMatT0=    0 NMatD0=    1 NMtDS0=    0 NMtDT0=    0
         I1Cent=           4 NGrid=           0.
 Symmetry not used in FoFCou.
 Harris En= -323.758650901673    
 Leave Link  401 at Sat Apr 16 14:53:24 2016, MaxMem=   33554432 cpu:       7.0
 (Enter c:\G09w03\l502.exe)
 Closed shell SCF:
 Requested convergence on RMS density matrix=1.00D-08 within 128 cycles.
 Requested convergence on MAX density matrix=1.00D-06.
 Requested convergence on             energy=1.00D-06.
 No special actions if energy rises.
 Using DIIS extrapolation, IDIIS=  1040.
 Two-electron integral symmetry not used.
       110873 words used for storage of precomputed grid.
 IEnd=      236079 IEndB=      236079 NGot=    33554432 MDV=    33370150
 LenX=    33370150 LenY=    33334740
 Fock matrices will be formed incrementally for  20 cycles.

 Cycle   1  Pass 1  IDiag  1:
 FoFCou: FMM=F IPFlag=           0 FMFlag=      100000 FMFlg1=           0
         NFxFlg=           0 DoJE=F BraDBF=F KetDBF=F FulRan=T
         Omega=  0.000000  0.000000  1.000000  0.000000  0.000000 ICntrl=       0 IOpCl=  0
         NMat0=    1 NMatS0=    1 NMatT0=    0 NMatD0=    1 NMtDS0=    0 NMtDT0=    0
         I1Cent=           0 NGrid=           0.
 Symmetry not used in FoFCou.
 E= -323.725561629989    
 DIIS: error= 5.58D-03 at cycle   1 NSaved=   1.
 NSaved= 1 IEnMin= 1 EnMin= -323.725561629989     IErMin= 1 ErrMin= 5.58D-03
 ErrMax= 5.58D-03 EMaxC= 1.00D-01 BMatC= 1.07D-02 BMatP= 1.07D-02
 IDIUse=3 WtCom= 9.44D-01 WtEn= 5.58D-02
 Coeff-Com:  0.100D+01
 Coeff-En:   0.100D+01
 Coeff:      0.100D+01
 Gap=     0.176 Goal=   None    Shift=    0.000
 GapD=    0.176 DampG=1.000 DampE=1.000 DampFc=1.0000 IDamp=-1.
 RMSDP=2.52D-03 MaxDP=1.75D-01              OVMax= 5.85D-02

 Cycle   2  Pass 1  IDiag  1:
 RMSU=  1.76D-03    CP:  1.03D+00
 E= -323.737856845986     Delta-E=       -0.012295215997 Rises=F Damp=F
 DIIS: error= 1.25D-03 at cycle   2 NSaved=   2.
 NSaved= 2 IEnMin= 2 EnMin= -323.737856845986     IErMin= 2 ErrMin= 1.25D-03
 ErrMax= 1.25D-03 EMaxC= 1.00D-01 BMatC= 3.69D-04 BMatP= 1.07D-02
 IDIUse=3 WtCom= 9.87D-01 WtEn= 1.25D-02
 Coeff-Com:  0.208D-01 0.979D+00
 Coeff-En:   0.000D+00 0.100D+01
 Coeff:      0.205D-01 0.979D+00
 Gap=     0.171 Goal=   None    Shift=    0.000
 RMSDP=2.33D-04 MaxDP=6.88D-03 DE=-1.23D-02 OVMax= 1.15D-02

 Cycle   3  Pass 1  IDiag  1:
 RMSU=  1.64D-04    CP:  1.03D+00  9.98D-01
 E= -323.737722503324     Delta-E=        0.000134342662 Rises=F Damp=F
 DIIS: error= 1.34D-03 at cycle   3 NSaved=   3.
[...]
    D2       -1.27673   0.00000   0.00000  -0.00066  -0.00066  -1.27739
    D3        2.51919   0.00000   0.00000  -0.00060  -0.00060   2.51859
    D4       -2.76064   0.00000   0.00000  -0.00053  -0.00053  -2.76117
    D5        0.79218   0.00000   0.00000  -0.00060  -0.00060   0.79158
    D6       -1.69509   0.00000   0.00000  -0.00054  -0.00054  -1.69563
    D7        1.78629   0.00001   0.00000   0.00018   0.00018   1.78647
    D8       -1.99986   0.00000   0.00000   0.00004   0.00004  -1.99981
    D9        1.09690   0.00000   0.00000  -0.00021  -0.00021   1.09669
   D10       -3.09967   0.00000   0.00000  -0.00018  -0.00018  -3.09985
   D11       -0.97896   0.00000   0.00000  -0.00023  -0.00023  -0.97920
   D12       -1.30744   0.00000   0.00000  -0.00007  -0.00007  -1.30751
   D13        0.77917   0.00000   0.00000  -0.00004  -0.00004   0.77913
   D14        2.89988   0.00000   0.00000  -0.00010  -0.00010   2.89979
   D15       -2.74067   0.00000   0.00000  -0.00029  -0.00029  -2.74096
   D16       -0.65406   0.00000   0.00000  -0.00026  -0.00026  -0.65432
   D17        1.46665   0.00000   0.00000  -0.00032  -0.00032   1.46633
   D18       -1.17914   0.00000   0.00000   0.00009   0.00009  -1.17905
   D19        2.09488   0.00000   0.00000   0.00006   0.00006   2.09494
   D20        2.63170   0.00000   0.00000   0.00019   0.00019   2.63189
   D21       -0.37747   0.00000   0.00000   0.00016   0.00016  -0.37731
   D22       -2.88476   0.00000   0.00000  -0.00011  -0.00011  -2.88487
   D23        2.85448   0.00000   0.00000   0.00011   0.00011   2.85459
   D24        0.90080   0.00000   0.00000  -0.00011  -0.00011   0.90069
   D25       -0.14342   0.00000   0.00000   0.00007   0.00007  -0.14335
         Item               Value     Threshold  Converged?
 Maximum Force            0.000035     0.000450     YES
 RMS     Force            0.000009     0.000300     YES
 Maximum Displacement     0.000959     0.001800     YES
 RMS     Displacement     0.000245     0.001200     YES
 Predicted change in Energy=-2.399706D-08
 Optimization completed.
    -- Stationary point found.
                           ----------------------------
                           !   Optimized Parameters   !
                           ! (Angstroms and Degrees)  !
 --------------------------                            --------------------------
 ! Name  Definition              Value          Derivative Info.                !
 --------------------------------------------------------------------------------
 ! R1    R(1,2)                  1.0136         -DE/DX =    0.0                 !
 ! R2    R(1,3)                  1.4635         -DE/DX =    0.0                 !
 ! R3    R(1,11)                 1.0199         -DE/DX =    0.0                 !
 ! R4    R(3,4)                  1.5614         -DE/DX =    0.0                 !
 ! R5    R(3,5)                  1.5144         -DE/DX =    0.0                 !
 ! R6    R(3,6)                  1.4369         -DE/DX =    0.0                 !
 ! R7    R(4,6)                  1.5634         -DE/DX =    0.0                 !
 ! R8    R(4,10)                 1.251          -DE/DX =    0.0                 !
 ! R9    R(5,7)                  1.094          -DE/DX =    0.0                 !
 ! R10   R(5,8)                  1.0935         -DE/DX =    0.0                 !
 ! R11   R(5,9)                  1.1006         -DE/DX =    0.0                 !
 ! R12   R(6,10)                 1.2912         -DE/DX =    0.0                 !
 ! R13   R(6,12)                 1.3141         -DE/DX =    0.0                 !
 ! R14   R(12,13)                0.9715         -DE/DX =    0.0                 !
 ! A1    A(2,1,3)              110.6937         -DE/DX =    0.0                 !
 ! A2    A(2,1,11)             106.9814         -DE/DX =    0.0                 !
 ! A3    A(3,1,11)             110.832          -DE/DX =    0.0                 !
 ! A4    A(1,3,4)               91.8118         -DE/DX =    0.0                 !
 ! A5    A(1,3,5)              116.7062         -DE/DX =    0.0                 !
 ! A6    A(1,3,6)              112.6036         -DE/DX =    0.0                 !
 ! A7    A(4,3,5)              143.5357         -DE/DX =    0.0                 !
 ! A8    A(5,3,6)              118.792          -DE/DX =    0.0                 !
 ! A9    A(3,4,10)             106.6896         -DE/DX =    0.0                 !
 ! A10   A(3,5,7)              109.8197         -DE/DX =    0.0                 !
 ! A11   A(3,5,8)              112.0963         -DE/DX =    0.0                 !
 ! A12   A(3,5,9)              112.012          -DE/DX =    0.0                 !
 ! A13   A(7,5,8)              107.6019         -DE/DX =    0.0                 !
 ! A14   A(7,5,9)              107.1541         -DE/DX =    0.0                 !
 ! A15   A(8,5,9)              107.9354         -DE/DX =    0.0                 !
 ! A16   A(3,6,10)             112.0479         -DE/DX =    0.0                 !
 ! A17   A(3,6,12)             126.2301         -DE/DX =    0.0                 !
 ! A18   A(4,6,12)             161.0273         -DE/DX =    0.0                 !
 ! A19   A(10,6,12)            121.2821         -DE/DX =    0.0                 !
 ! A20   A(6,12,13)            110.6572         -DE/DX =    0.0                 !
 ! D1    D(2,1,3,4)             83.2867         -DE/DX =    0.0                 !
 ! D2    D(2,1,3,5)            -73.1515         -DE/DX =    0.0                 !
 ! D3    D(2,1,3,6)            144.3387         -DE/DX =    0.0                 !
 ! D4    D(11,1,3,4)          -158.1732         -DE/DX =    0.0                 !
 ! D5    D(11,1,3,5)            45.3886         -DE/DX =    0.0                 !
 ! D6    D(11,1,3,6)           -97.1212         -DE/DX =    0.0                 !
 ! D7    D(1,3,4,10)           102.347          -DE/DX =    0.0                 !
 ! D8    D(5,3,4,10)          -114.5834         -DE/DX =    0.0                 !
 ! D9    D(1,3,5,7)             62.8478         -DE/DX =    0.0                 !
 ! D10   D(1,3,5,8)           -177.5983         -DE/DX =    0.0                 !
 ! D11   D(1,3,5,9)            -56.0905         -DE/DX =    0.0                 !
 ! D12   D(4,3,5,7)            -74.9105         -DE/DX =    0.0                 !
 ! D13   D(4,3,5,8)             44.6434         -DE/DX =    0.0                 !
 ! D14   D(4,3,5,9)            166.1511         -DE/DX =    0.0                 !
 ! D15   D(6,3,5,7)           -157.0288         -DE/DX =    0.0                 !
 ! D16   D(6,3,5,8)            -37.4749         -DE/DX =    0.0                 !
 ! D17   D(6,3,5,9)             84.0329         -DE/DX =    0.0                 !
 ! D18   D(1,3,6,10)           -67.5598         -DE/DX =    0.0                 !
 ! D19   D(1,3,6,12)           120.0275         -DE/DX =    0.0                 !
 ! D20   D(5,3,6,10)           150.7853         -DE/DX =    0.0                 !
 ! D21   D(5,3,6,12)           -21.6274         -DE/DX =    0.0                 !
 ! D22   D(3,4,6,10)          -165.2848         -DE/DX =    0.0                 !
 ! D23   D(3,6,12,13)          163.5495         -DE/DX =    0.0                 !
 ! D24   D(4,6,12,13)           51.6121         -DE/DX =    0.0                 !
 ! D25   D(10,6,12,13)          -8.2175         -DE/DX =    0.0                 !
 --------------------------------------------------------------------------------
 GradGradGradGradGradGradGradGradGradGradGradGradGradGradGradGradGradGrad

 Leave Link  103 at Sat Apr 16 15:49:54 2016, MaxMem=   33554432 cpu:       0.0
 (Enter c:\G09w03\l9999.exe)

 Test job not archived.
 1|1|UNPC-WIN-20150318OUM|Freq|RB3LYP|6-311++G(d,p)|C3H7N1O2|ADMINISTRA
 TOR|16-Apr-2016|0||#P Geom=AllCheck Guess=TCheck SCRF=Check Test GenCh
 k RB3LYP/6-311++G(d,p) Freq||Ala-S-opt-freq-cpcm-w-tsb1-6-311++gdp||0,
 1|N,-1.2614368267,-1.1935985043,-0.5397250733|H,-2.0127304871,-1.61250
 35158,-0.0036492294|C,-0.6294122964,-0.1103673799,0.214679184|H,0.2786
 500674,-1.1148762817,0.992042416|C,-1.4189100276,1.174715578,0.3512392
 329|C,0.7870295128,-0.0314479382,-0.0138626915|H,-2.3424827749,0.98545
 37746,0.9061870092|H,-0.8608971932,1.9449212621,0.8907463963|H,-1.7070
 642727,1.5877913088,-0.6273586528|O,1.4135759037,-1.0517597234,0.46949
 69295|H,-1.6726029339,-0.8417096133,-1.4041513812|O,1.4379133836,0.997
 7833748,-0.5078148931|H,2.3897899448,0.9183736583,-0.3307402466||Versi
 on=IA32W-G09RevB.01|HF=-323.7385001|RMSD=1.880e-009|RMSF=1.362e-005|Ze
 roPoint=0.1006691|Thermal=0.1074107|Dipole=-0.0464186,0.9324172,-0.039
 667|DipoleDeriv=-0.4277867,0.0916121,0.0884289,0.2675361,-0.7016099,-0
 .2135275,-0.1510896,-0.4108436,-0.162985,0.084186,-0.1217058,-0.004802
 2,-0.0369323,0.3228582,-0.0358353,0.041047,0.0031522,0.11412,-0.409240
 6,0.039353,0.2896166,-0.1959921,0.0004246,0.4344867,0.4636315,0.512262
 7,-0.4523849,0.993785,-0.6959182,0.3111689,-0.2816536,0.4612855,-0.053
 6907,-0.0657139,0.1694116,0.0813315,0.0880564,0.0169739,0.048032,-0.05
 29613,-0.020621,-0.1807014,-0.0603935,-0.0258656,0.2474469,2.1812941,0
 .5404663,-0.6499368,0.3298716,1.498161,-0.6420257,-0.2246376,-0.753950
 9,0.6880148,-0.122353,0.0071958,0.097414,-0.0287039,0.042289,0.0501945
 ,0.1196947,0.017121,0.0290147,0.0085766,-0.1053624,-0.0853912,-0.03686
 53,-0.1105734,-0.1053437,-0.0661385,-0.114368,0.0177744,-0.0024453,0.1
 031487,-0.0548024,0.1410919,-0.0562207,0.0510102,-0.1587346,0.1560389,
 -0.1959768,-1.8565838,0.8516355,-0.2473191,0.5754725,-0.8712747,0.0860
 366,0.138236,0.0251306,-0.3361589,0.0623935,-0.1170383,-0.1883394,-0.0
 538182,0.1776673,0.1606993,-0.2160658,0.0466867,0.0953062,-1.0359275,-
 0.6693852,0.4387748,-0.6637474,-1.0848573,0.3755418,0.2834246,0.342114
 7,-0.5449804,0.4360453,0.0590246,-0.0428442,0.0367018,0.3424714,0.0731
 552,-0.1032603,0.0331096,0.4194775|Polar=91.6151305,-3.3048476,78.1008
 026,0.4258611,-5.6428652,63.9085463|PG=C01 [X(C3H7N1O2)]|NImag=1||0.46
 293164,0.16388784,0.34578317,0.01886754,-0.14385113,0.55906067,-0.2494
 6198,-0.14576890,0.15449309,0.25426119,-0.10689438,-0.07751004,0.07448
 303,0.13895917,0.10249393,0.14470829,0.09645140,-0.17010493,-0.1484147
 6,-0.09104926,0.17949573,-0.09306141,-0.01198212,-0.02637983,-0.012262
 39,-0.02268889,-0.02008910,0.59524831,-0.07387438,-0.13072609,-0.08246
 736,0.00173448,-0.01341371,-0.01147329,-0.04522021,0.39879175,-0.03941
 254,-0.04270081,-0.08164249,0.00244028,0.00646283,0.00781322,0.0333412
 9,0.09966249,0.19344408,-0.00634915,0.01162934,-0.03475332,0.00345608,
 0.00273824,0.00246274,-0.01679350,-0.07520523,0.04981578,-0.10972214,-
 0.00150714,-0.00069691,0.00290212,0.00016662,-0.00092472,-0.00166964,-
 0.00133762,0.00895474,-0.00396099,0.08760568,0.03836478,-0.00289990,-0
 .00096355,-0.00257308,-0.00011602,-0.00057187,0.00045288,0.00510469,0.
 01286567,-0.03682293,0.00437756,-0.05359676,0.08913856,0.00765675,-0.0
 2030961,-0.00681099,0.00126296,-0.00026630,-0.00065120,-0.11640486,0.0
 5342912,0.01136840,-0.00434383,0.00087702,0.00092825,0.53424785,0.0088
 1313,-0.03084784,-0.00775825,0.00073245,-0.00007951,0.00014075,0.05270
 767,-0.15650575,-0.01424052,0.00066560,-0.00197070,-0.00046967,0.05091
 659,0.48616901,0.00338251,-0.02366019,-0.00460595,-0.00022638,0.000934
 91,0.00005307,0.00063463,0.00808071,-0.07119282,0.01797136,-0.00659129
 ,0.00273550,0.00324820,0.01290865,0.52769464,-0.02047323,-0.03421651,0
 .03394237,-0.00457752,-0.00212036,-0.00208724,-0.25362532,0.06865490,-
 0.06105585,0.12081833,-0.04871183,-0.00400401,-0.01575418,0.00949165,0
 .00301841,0.60971837,-0.02468130,-0.00800586,0.00136248,-0.00317681,-0
 .00191590,-0.00356502,-0.01474979,-0.10046738,0.00390716,-0.09095578,-
 0.00713164,0.04644219,0.02849476,0.00261713,-0.00018188,0.04104781,0.6
 2612956,-0.02240005,-0.00243898,-0.00722479,-0.00096975,-0.00047529,-0
 .00000162,0.01785958,-0.01187124,-0.05230481,0.03534215,0.04007317,-0.
 03849146,0.00135121,0.00256617,-0.00786019,-0.02071674,-0.19104812,0.2
 9785552,0.00193888,-0.00019226,-0.00094674,0.00002541,0.00046547,0.000
 49112,-0.01715571,-0.00145777,0.00624749,0.00071122,-0.00017828,-0.000
 20901,-0.22763776,-0.04185317,0.11168636,0.00062074,0.00243502,0.00150
 323,0.24901890,-0.00042033,0.00277319,0.00111746,-0.00046097,-0.000367
 10,0.00014210,0.02725984,0.00329937,-0.01523011,0.00072095,-0.00013730
 ,0.00023658,-0.04248675,-0.05298642,0.02383694,-0.00072680,-0.00483740
 ,-0.00274797,0.04169747,0.05883167,-0.00027812,-0.00001337,0.00014714,
 0.00018416,-0.00023022,-0.00013492,0.00087623,-0.00044027,0.00028812,-
 0.00102222,-0.00005720,0.00051491,0.11195313,0.02426078,-0.11211930,0.
 00049658,-0.00074327,0.00002317,-0.12257678,-0.02734062,0.11885151,-0.
 00026808,0.00392127,0.00115030,-0.00004992,0.00018845,0.00001762,0.009
 97617,0.01071662,0.00903847,-0.00026475,0.00024292,-0.00025820,-0.1172
 4929,-0.09436762,-0.06793013,-0.00010280,-0.00008421,0.00085170,-0.013
 15342,-0.01793367,-0.01424084,0.12516413,0.00326109,-0.00734467,-0.002
 30482,0.00013493,0.00056635,-0.00008943,-0.01616004,-0.01410228,-0.011
 61193,-0.00006656,-0.00022024,0.00021105,-0.09200623,-0.17315860,-0.08
 932615,-0.00154226,-0.00048227,0.00004036,-0.00242303,-0.00402526,-0.0
 0202061,0.10149021,0.18875619,0.00041052,-0.00157214,0.00118377,0.0000
 5269,-0.00031354,-0.00012388,-0.00037238,0.00018486,-0.00237029,-0.000
 40921,0.00004987,0.00008021,-0.06696156,-0.09012509,-0.10966536,-0.000
 49839,-0.00111907,0.00052583,0.00774113,0.01240985,0.00885014,0.074258
 54,0.09933410,0.11488916,0.00053158,-0.00198470,0.00150077,-0.00007172
 ,0.00000016,0.00011174,-0.00863884,0.01262427,-0.01767462,0.00508835,-
 0.00233371,0.00029767,-0.05918050,0.01976675,-0.05535191,0.00140023,0.
 00267664,-0.00233276,0.00722350,-0.00935577,0.02438087,-0.00430015,0.0
 0651244,-0.01476558,0.06320712,0.00041669,0.00311983,0.00122124,-0.000
 16734,0.00003389,-0.00013068,0.01202931,-0.01688931,0.02431013,-0.0056
 8620,0.00231271,-0.00047920,0.01956703,-0.07705456,0.07922212,-0.00314
 711,-0.00236140,0.00232232,0.00131452,-0.00269853,0.00588395,-0.004534
 48,0.00883850,-0.02015869,-0.02747664,0.08392793,0.00144172,0.00083094
 ,0.00307626,0.00014730,0.00008695,-0.00017176,-0.00389572,-0.00029090,
 0.00624036,0.00047202,-0.00139166,0.00020979,-0.05238180,0.07438714,-0
 .24082806,0.00413738,0.00107148,0.00020746,-0.00373236,0.00531230,-0.0
 1579707,-0.00286611,0.00519371,-0.01371252,0.06023483,-0.08713378,0.26
 191224,-0.00021591,-0.00058700,0.00145828,-0.00111440,-0.00020230,-0.0
 0161553,-0.06528517,0.08977405,-0.00581001,0.02628584,-0.03827142,-0.0
 1111714,-0.00509957,-0.00395780,-0.01908696,-0.23339066,0.17938440,-0.
 05952305,-0.00142430,0.00132009,0.00055399,0.00083702,0.00021893,0.000
 58686,-0.00571495,0.00741853,-0.00195106,0.25545353,-0.00313447,-0.008
 84581,0.02090908,-0.00306740,-0.00081405,-0.00079184,0.04878333,0.0332
 3208,-0.03839558,0.07124666,-0.03449931,-0.01256296,0.00140781,0.00223
 090,-0.00080302,0.07160844,-0.25790336,0.08739908,0.00001580,-0.000565
 19,0.00032548,0.00005496,-0.00028257,-0.00001044,0.00002710,-0.0009311
 1,0.00167750,-0.20705165,0.31497573,0.00118495,0.00701569,-0.01037899,
 0.00173599,0.00095868,0.00098354,0.00148136,-0.02006031,0.03938676,-0.
 06391985,0.02520688,-0.02057154,-0.00334880,-0.00274132,0.01304562,-0.
 02129590,0.06415395,-0.09408811,-0.00042017,0.00213114,-0.00044308,-0.
 00012478,-0.00003530,-0.00031728,0.00264516,-0.00309522,-0.00035919,0.
 09720032,-0.10779701,0.08232886,-0.09929654,0.03646231,-0.14362838,0.0
 0978931,-0.00947162,0.02729689,-0.01322930,0.00097430,-0.01100668,-0.0
 0306501,-0.00105206,0.00045106,0.00109781,-0.00024649,0.00254059,0.009
 33485,0.00048900,-0.00458090,0.00015511,0.00001933,0.00004809,-0.00020
 223,0.00014073,-0.00003288,0.00063231,-0.00098824,-0.00026237,-0.00282
 955,0.00465614,-0.00187211,0.09882506,0.03408055,-0.09097835,0.1385662
 5,0.01085229,-0.00814170,0.01246136,-0.01767550,0.00233176,-0.02880699
 ,-0.00196594,-0.00005927,-0.00130459,-0.00084058,0.00324111,-0.0022235
 4,0.00533676,-0.00200828,-0.00305766,0.00006705,-0.00024129,0.00020576
 ,0.00007912,0.00023350,0.00064937,0.00033356,0.00009852,0.00146458,-0.
 00059094,0.00284568,0.00046596,-0.02937690,0.09339356,-0.10740593,0.11
 204700,-0.28764304,-0.00991269,0.00977094,-0.01872468,-0.01751722,-0.0
 0194381,-0.01397491,-0.00139026,-0.00201435,-0.00105677,0.00168525,0.0
 0094736,0.00236478,0.00694715,-0.00066439,-0.00117817,0.00023933,-0.00
 012554,-0.00032444,0.00001176,0.00071002,0.00063524,0.00062167,-0.0013
 6407,-0.00081174,-0.00203886,0.00321950,0.00028028,0.12996242,-0.11930
 958,0.32048350,-0.00358092,0.00029519,-0.00047182,-0.00120702,-0.00058
 127,-0.00199939,-0.01418657,-0.04158193,0.02534530,-0.01413710,0.00459
 676,0.00734888,0.00109531,-0.00292517,0.00007008,-0.17924316,-0.113453
 02,0.05083846,-0.00046773,0.00038057,-0.00041691,-0.00027283,0.0004080
 3,-0.00005373,-0.00024959,0.00148873,-0.00140974,0.02741852,0.01009158
 ,-0.01032976,-0.00158651,-0.00052581,-0.00140354,0.64458527,-0.0001141
 4,0.00319971,-0.00403856,0.00001168,0.00010041,-0.00030297,-0.01106973
 ,-0.00993659,0.01519552,0.00485389,-0.00560370,0.00784052,0.00089472,-
 0.00147939,-0.00226604,-0.06204339,-0.24204589,0.08472946,0.00009532,0
 .00077494,0.00019803,0.00027062,0.00103496,0.00051447,-0.00079381,0.00
 151972,-0.00102256,-0.03209210,-0.05319505,0.03993485,-0.00170399,-0.0
 0066919,-0.00108691,0.07290460,0.34869426,0.00082236,-0.00259213,0.002
 56050,0.00004483,-0.00024299,0.00013062,0.00965149,0.00617722,0.003538
 72,-0.00612029,0.00109234,0.00550441,-0.00042551,0.00047563,0.00017750
 ,0.03408723,0.08071079,-0.10035549,0.00000174,0.00010084,0.00016792,0.
 00010423,-0.00019615,-0.00001805,0.00023039,-0.00071327,0.00024471,0.0
 0308278,0.04723790,-0.00568724,0.00114064,0.00097460,0.00030136,0.0360
 8893,-0.15943388,0.13480887,-0.00035163,-0.00115485,0.00157874,-0.0000
 4999,-0.00012638,-0.00023117,0.00541860,-0.00056823,-0.00263730,-0.001
 68434,-0.00009693,0.00009618,0.00030931,0.00025640,0.00004325,-0.03472
 565,-0.00742671,0.00277692,0.00014516,-0.00001397,0.00004182,-0.000113
 84,0.00003177,0.00004398,0.00007266,-0.00023481,0.00006591,0.00507959,
 0.00536171,-0.00293642,0.00037470,0.00022634,0.00020094,-0.45816766,0.
 02878632,-0.07870884,0.48369310,0.00016684,0.00007969,-0.00014155,0.00
 004981,-0.00002785,-0.00012348,0.00010375,-0.00456860,0.00540881,-0.00
 558066,0.00161156,0.00235259,0.00032242,-0.00017537,0.00006877,-0.0436
 3130,-0.00158731,-0.00549130,0.00001387,0.00017931,-0.00002845,-0.0000
 4419,0.00018639,0.00015645,0.00000370,0.00008381,-0.00018568,0.0046371
 9,0.00375208,-0.00613798,0.00009749,-0.00004606,-0.00018616,0.06890172
 ,-0.04239418,0.02640910,-0.02504064,0.04290654,0.00157866,0.00144727,-
 0.00185507,0.00054127,0.00018583,0.00033273,-0.00069502,0.00157622,0.0
 0759699,-0.00282646,-0.00004248,0.00087951,0.00004542,-0.00035162,0.00
 020057,0.02702902,-0.00032630,0.00289268,-0.00002533,0.00015703,-0.000
 02411,-0.00001255,0.00009515,0.00004303,0.00010177,0.00011515,-0.00021
 048,-0.00173963,-0.00040768,-0.00417962,-0.00005638,-0.00008552,-0.000
 35141,-0.10360676,0.01973807,-0.04137381,0.07966599,-0.02210112,0.0360
 4900||-0.00001326,-0.00001832,-0.00001341,0.00001237,0.00001466,0.0000
 2250,-0.00003645,-0.00002201,-0.00000811,0.00000796,0.00002235,-0.0000
 0154,0.00001259,0.00000081,-0.00000019,0.00000804,0.00000307,0.0000047
 7,0.00000107,0.00000108,-0.00001215,-0.00000036,0.00000388,-0.00000934
 ,0.00000116,0.00000009,-0.00001559,-0.00002110,-0.00001585,0.00002258,
 0.00002989,0.00001418,0.00000012,-0.00000603,-0.00000009,0.00000040,0.
 00000413,-0.00000386,0.00000997|||@


 Once you get people laughing, they're
 listening and you can tell them almost anything.
                                 -- Herb Gardner
 Job cpu time:  0 days  0 hours 20 minutes 37.0 seconds.
 File lengths (MBytes):  RWF=     61 Int=      0 D2E=      0 Chk=      9 Scr=      1
 Normal termination of Gaussian 09 at Sat Apr 16 15:49:54 2016.
