 Entering Gaussian System, Link 0=g09
 Input=Ala-S-opt-freq-tsb1-6-31g.com
 Output=Ala-S-opt-freq-tsb1-6-31g.log
 Initial command:
 /usr/local/gau/g09/l1.exe "/tmp/Gau-4730.inp" -scrdir="/tmp/"
 Entering Link 1 = /usr/local/gau/g09/l1.exe PID=      4732.
  
 Copyright (c) 1988,1990,1992,1993,1995,1998,2003,2009,2013,
            Gaussian, Inc.  All Rights Reserved.
  
 This is part of the Gaussian(R) 09 program.  It is based on
 the Gaussian(R) 03 system (copyright 2003, Gaussian, Inc.),
 the Gaussian(R) 98 system (copyright 1998, Gaussian, Inc.),
 the Gaussian(R) 94 system (copyright 1995, Gaussian, Inc.),
 the Gaussian 92(TM) system (copyright 1992, Gaussian, Inc.),
 the Gaussian 90(TM) system (copyright 1990, Gaussian, Inc.),
 the Gaussian 88(TM) system (copyright 1988, Gaussian, Inc.),
 the Gaussian 86(TM) system (copyright 1986, Carnegie Mellon
 University), and the Gaussian 82(TM) system (copyright 1983,
 Carnegie Mellon University). Gaussian is a federally registered
 trademark of Gaussian, Inc.
  
 This software contains proprietary and confidential information,
 including trade secrets, belonging to Gaussian, Inc.
  
 This software is provided under written license and may be
 used, copied, transmitted, or stored only in accord with that
 written license.
  
 The following legend is applicable only to US Government
 contracts under FAR:
  
                    RESTRICTED RIGHTS LEGEND
  
 Use, reproduction and disclosure by the US Government is
 subject to restrictions as set forth in subparagraphs (a)
 and (c) of the Commercial Computer Software - Restricted
 Rights clause in FAR 52.227-19.
  
 Gaussian, Inc.
 340 Quinnipiac St., Bldg. 40, Wallingford CT 06492
  
  
 ---------------------------------------------------------------
 Warning -- This program may not be used in any manner that
 competes with the business of Gaussian, Inc. or will provide
 assistance to any competitor of Gaussian, Inc.  The licensee
 of this program is prohibited from giving any competitor of
 Gaussian, Inc. access to this program.  By using this program,
 the user acknowledges that Gaussian, Inc. is engaged in the
 business of creating and licensing software in the field of
 computational chemistry and represents and warrants to the
 licensee that it is not a competitor of Gaussian, Inc. and that
 it will not use this program in any manner prohibited above.
 ---------------------------------------------------------------
  

 Cite this work as:
 Gaussian 09, Revision D.01,
 M. J. Frisch, G. W. Trucks, H. B. Schlegel, G. E. Scuseria, 
 M. A. Robb, J. R. Cheeseman, G. Scalmani, V. Barone, B. Mennucci, 
 G. A. Petersson, H. Nakatsuji, M. Caricato, X. Li, H. P. Hratchian, 
 A. F. Izmaylov, J. Bloino, G. Zheng, J. L. Sonnenberg, M. Hada, 
 M. Ehara, K. Toyota, R. Fukuda, J. Hasegawa, M. Ishida, T. Nakajima, 
 Y. Honda, O. Kitao, H. Nakai, T. Vreven, J. A. Montgomery, Jr., 
 J. E. Peralta, F. Ogliaro, M. Bearpark, J. J. Heyd, E. Brothers, 
 K. N. Kudin, V. N. Staroverov, T. Keith, R. Kobayashi, J. Normand, 
 K. Raghavachari, A. Rendell, J. C. Burant, S. S. Iyengar, J. Tomasi, 
 M. Cossi, N. Rega, J. M. Millam, M. Klene, J. E. Knox, J. B. Cross, 
 V. Bakken, C. Adamo, J. Jaramillo, R. Gomperts, R. E. Stratmann, 
 O. Yazyev, A. J. Austin, R. Cammi, C. Pomelli, J. W. Ochterski, 
 R. L. Martin, K. Morokuma, V. G. Zakrzewski, G. A. Voth, 
 P. Salvador, J. J. Dannenberg, S. Dapprich, A. D. Daniels, 
 O. Farkas, J. B. Foresman, J. V. Ortiz, J. Cioslowski, 
 and D. J. Fox, Gaussian, Inc., Wallingford CT, 2013.
 
 ******************************************
 Gaussian 09:  ES64L-G09RevD.01 24-Apr-2013
                12-Apr-2016 
 ******************************************
 %chk=Ala-S-opt-freq-tsb1-6-31g.chk
 ------------------------------------------------
 #p opt=(calcfc,ts) freq rb3lyp/6-31g iop(1/11=1)
 ------------------------------------------------
 1/5=1,10=4,11=1,14=-1,18=20,26=3,38=1/1,3;
 2/9=110,12=2,17=6,18=5,40=1/2;
 3/5=1,6=6,11=2,16=1,25=1,30=1,71=2,74=-5,116=1,140=1/1,2,3;
 4//1;
 5/5=2,38=5/2;
 8/6=4,10=90,11=11/1;
 11/6=1,8=1,9=11,15=111,16=1/1,2,10;
 10/6=1,13=1/2;
 6/7=2,8=2,9=2,10=2,28=1/1;
 7/10=1,18=20,25=1/1,2,3,16;
 1/5=1,10=4,11=1,14=-1,18=20,26=3/3(2);
 2/9=110/2;
 99//99;
 2/9=110/2;
 3/5=1,6=6,11=2,16=1,25=1,30=1,71=1,74=-5,116=1/1,2,3;
 4/5=5,16=3,69=1/1;
 5/5=2,38=5/2;
 7//1,2,3,16;
 1/5=1,11=1,14=-1,18=20,26=3/3(-5);
 2/9=110/2;
 6/7=2,8=2,9=2,10=2,19=2,28=1/1;
 99/9=1/99;
 Leave Link    1 at Tue Apr 12 15:08:28 2016, MaxMem=           0 cpu:         0.0
 (Enter /usr/local/gau/g09/l101.exe)
 ------------------------
 Ala-S-opt-freq-tsb16-31g
 ------------------------
 Symbolic Z-matrix:
 Charge =  0 Multiplicity = 1
 N                    -1.35244  -1.25731  -0.44978 
 H                    -1.12969  -1.82966   0.35898 
 C                    -0.59132  -0.01323  -0.4174 
 H                     0.17893  -1.28652  -0.57307 
 C                    -1.13523   1.06886   0.54364 
 C                     0.8378   -0.33987  -0.01797 
 H                    -1.14511   0.69927   1.57269 
 H                    -0.53457   1.98105   0.5005 
 H                    -2.15981   1.32435   0.26067 
 O                     1.17032  -1.26957   0.67332 
 H                    -2.34942  -1.07424  -0.45303 
 O                     1.71656   0.57563  -0.48816 
 H                     2.59271   0.33294  -0.15181 
 
 NAtoms=     13 NQM=       13 NQMF=       0 NMMI=      0 NMMIF=      0
                NMic=       0 NMicF=      0.
                    Isotopes and Nuclear Properties:
 (Nuclear quadrupole moments (NQMom) in fm**2, nuclear magnetic moments (NMagM)
  in nuclear magnetons)

  Atom         1           2           3           4           5           6           7           8           9          10
 IAtWgt=          14           1          12           1          12          12           1           1           1          16
 AtmWgt=  14.0030740   1.0078250  12.0000000   1.0078250  12.0000000  12.0000000   1.0078250   1.0078250   1.0078250  15.9949146
 NucSpn=           2           1           0           1           0           0           1           1           1           0
 AtZEff=   0.0000000   0.0000000   0.0000000   0.0000000   0.0000000   0.0000000   0.0000000   0.0000000   0.0000000   0.0000000
 NQMom=    2.0440000   0.0000000   0.0000000   0.0000000   0.0000000   0.0000000   0.0000000   0.0000000   0.0000000   0.0000000
 NMagM=    0.4037610   2.7928460   0.0000000   2.7928460   0.0000000   0.0000000   2.7928460   2.7928460   2.7928460   0.0000000
 AtZNuc=   7.0000000   1.0000000   6.0000000   1.0000000   6.0000000   6.0000000   1.0000000   1.0000000   1.0000000   8.0000000

  Atom        11          12          13
 IAtWgt=           1          16           1
 AtmWgt=   1.0078250  15.9949146   1.0078250
 NucSpn=           1           0           1
 AtZEff=   0.0000000   0.0000000   0.0000000
 NQMom=    0.0000000   0.0000000   0.0000000
 NMagM=    2.7928460   0.0000000   2.7928460
 AtZNuc=   1.0000000   8.0000000   1.0000000
 Leave Link  101 at Tue Apr 12 15:08:29 2016, MaxMem=    33554432 cpu:         0.1
 (Enter /usr/local/gau/g09/l103.exe)

 GradGradGradGradGradGradGradGradGradGradGradGradGradGradGradGradGradGrad
 Berny optimization.
 Initialization pass.
                           ----------------------------
                           !    Initial Parameters    !
                           ! (Angstroms and Degrees)  !
 --------------------------                            --------------------------
 ! Name  Definition              Value          Derivative Info.                !
 --------------------------------------------------------------------------------
 ! R1    R(1,2)                  1.0155         calculate D2E/DX2 analytically  !
 ! R2    R(1,3)                  1.4588         calculate D2E/DX2 analytically  !
 ! R3    R(1,11)                 1.0137         calculate D2E/DX2 analytically  !
 ! R4    R(3,5)                  1.5461         calculate D2E/DX2 analytically  !
 ! R5    R(3,6)                  1.5194         calculate D2E/DX2 analytically  !
 ! R6    R(4,6)                  1.28           calculate D2E/DX2 analytically  !
 ! R7    R(5,7)                  1.0935         calculate D2E/DX2 analytically  !
 ! R8    R(5,8)                  1.093          calculate D2E/DX2 analytically  !
 ! R9    R(5,9)                  1.0932         calculate D2E/DX2 analytically  !
 ! R10   R(6,10)                 1.2053         calculate D2E/DX2 analytically  !
 ! R11   R(6,12)                 1.3533         calculate D2E/DX2 analytically  !
 ! R12   R(12,13)                0.9694         calculate D2E/DX2 analytically  !
 ! A1    A(2,1,3)              110.397          calculate D2E/DX2 analytically  !
 ! A2    A(2,1,11)             108.6676         calculate D2E/DX2 analytically  !
 ! A3    A(3,1,11)             111.0515         calculate D2E/DX2 analytically  !
 ! A4    A(1,3,5)              115.2856         calculate D2E/DX2 analytically  !
 ! A5    A(1,3,6)              108.2548         calculate D2E/DX2 analytically  !
 ! A6    A(5,3,6)              108.5388         calculate D2E/DX2 analytically  !
 ! A7    A(3,5,7)              110.5846         calculate D2E/DX2 analytically  !
 ! A8    A(3,5,8)              111.4838         calculate D2E/DX2 analytically  !
 ! A9    A(3,5,9)              109.4138         calculate D2E/DX2 analytically  !
 ! A10   A(7,5,8)              108.9163         calculate D2E/DX2 analytically  !
 ! A11   A(7,5,9)              108.308          calculate D2E/DX2 analytically  !
 ! A12   A(8,5,9)              108.0458         calculate D2E/DX2 analytically  !
 ! A13   A(3,6,4)               63.9489         calculate D2E/DX2 analytically  !
 ! A14   A(3,6,10)             125.1745         calculate D2E/DX2 analytically  !
 ! A15   A(3,6,12)             111.962          calculate D2E/DX2 analytically  !
 ! A16   A(4,6,10)              79.6462         calculate D2E/DX2 analytically  !
 ! A17   A(4,6,12)             133.1479         calculate D2E/DX2 analytically  !
 ! A18   A(10,6,12)            122.815          calculate D2E/DX2 analytically  !
 ! A19   A(6,12,13)            107.2766         calculate D2E/DX2 analytically  !
 ! D1    D(2,1,3,5)            -78.2711         calculate D2E/DX2 analytically  !
 ! D2    D(2,1,3,6)             43.4703         calculate D2E/DX2 analytically  !
 ! D3    D(11,1,3,5)            42.328          calculate D2E/DX2 analytically  !
 ! D4    D(11,1,3,6)           164.0694         calculate D2E/DX2 analytically  !
 ! D5    D(1,3,5,7)             60.0762         calculate D2E/DX2 analytically  !
 ! D6    D(1,3,5,8)           -178.5935         calculate D2E/DX2 analytically  !
 ! D7    D(1,3,5,9)            -59.1421         calculate D2E/DX2 analytically  !
 ! D8    D(6,3,5,7)            -61.5121         calculate D2E/DX2 analytically  !
 ! D9    D(6,3,5,8)             59.8182         calculate D2E/DX2 analytically  !
 ! D10   D(6,3,5,9)            179.2696         calculate D2E/DX2 analytically  !
 ! D11   D(1,3,6,4)             25.3021         calculate D2E/DX2 analytically  !
 ! D12   D(1,3,6,10)           -28.5941         calculate D2E/DX2 analytically  !
 ! D13   D(1,3,6,12)           153.8859         calculate D2E/DX2 analytically  !
 ! D14   D(5,3,6,4)            151.1048         calculate D2E/DX2 analytically  !
 ! D15   D(5,3,6,10)            97.2085         calculate D2E/DX2 analytically  !
 ! D16   D(5,3,6,12)           -80.3115         calculate D2E/DX2 analytically  !
 ! D17   D(3,6,12,13)          176.6707         calculate D2E/DX2 analytically  !
 ! D18   D(4,6,12,13)         -109.056          calculate D2E/DX2 analytically  !
 ! D19   D(10,6,12,13)          -0.9173         calculate D2E/DX2 analytically  !
 --------------------------------------------------------------------------------
 Trust Radius=3.00D-01 FncErr=1.00D-07 GrdErr=1.00D-06
 Number of steps in this run=     60 maximum allowed number of steps=    100.
 Search for a saddle point of order  1.
 GradGradGradGradGradGradGradGradGradGradGradGradGradGradGradGradGradGrad

 Leave Link  103 at Tue Apr 12 15:08:29 2016, MaxMem=    33554432 cpu:         0.0
 (Enter /usr/local/gau/g09/l202.exe)
                          Input orientation:                          
 ---------------------------------------------------------------------
 Center     Atomic      Atomic             Coordinates (Angstroms)
 Number     Number       Type             X           Y           Z
 ---------------------------------------------------------------------
      1          7           0       -1.352436   -1.257314   -0.449781
      2          1           0       -1.129691   -1.829659    0.358983
      3          6           0       -0.591318   -0.013234   -0.417397
      4          1           0        0.178933   -1.286517   -0.573075
      5          6           0       -1.135231    1.068864    0.543640
      6          6           0        0.837803   -0.339865   -0.017970
      7          1           0       -1.145110    0.699267    1.572692
      8          1           0       -0.534573    1.981053    0.500504
      9          1           0       -2.159814    1.324355    0.260667
     10          8           0        1.170324   -1.269570    0.673317
     11          1           0       -2.349419   -1.074238   -0.453034
     12          8           0        1.716557    0.575632   -0.488157
     13          1           0        2.592707    0.332944   -0.151813
 ---------------------------------------------------------------------
                    Distance matrix (angstroms):
                    1          2          3          4          5
     1  N    0.000000
     2  H    1.015526   0.000000
     3  C    1.458796   2.047440   0.000000
     4  H    1.536602   1.695945   1.496252   0.000000
     5  C    2.538733   2.904404   1.546082   2.919229   0.000000
     6  C    2.413570   2.496520   1.519413   1.280000   2.488531
     7  H    2.821629   2.805137   2.185131   3.209476   1.093457
     8  H    3.472602   3.859497   2.196120   3.512645   1.093041
     9  H    2.796714   3.319431   2.170045   3.602987   1.093215
    10  O    2.761488   2.388006   2.423101   1.592681   3.286438
    11  H    1.013658   1.648566   2.053757   2.540086   2.657160
    12  O    3.574896   3.821544   2.382867   2.416422   3.072552
    13  H    4.264019   4.335206   3.213781   2.937077   3.862998
                    6          7          8          9         10
     6  C    0.000000
     7  H    2.746260   0.000000
     8  H    2.745704   1.779134   0.000000
     9  H    3.439909   1.772504   1.769232   0.000000
    10  O    1.205321   3.169610   3.674655   4.241291   0.000000
    11  H    3.299541   2.949448   3.679362   2.509695   3.700731
    12  O    1.353299   3.528671   2.832004   4.018405   2.247702
    13  H    1.884217   4.132721   3.594671   4.872319   2.296098
                   11         12         13
    11  H    0.000000
    12  O    4.388105   0.000000
    13  H    5.147378   0.969362   0.000000
 Stoichiometry    C3H7NO2
 Framework group  C1[X(C3H7NO2)]
 Deg. of freedom    33
 Full point group                 C1      NOp   1
 Largest Abelian subgroup         C1      NOp   1
 Largest concise Abelian subgroup C1      NOp   1
                         Standard orientation:                         
 ---------------------------------------------------------------------
 Center     Atomic      Atomic             Coordinates (Angstroms)
 Number     Number       Type             X           Y           Z
 ---------------------------------------------------------------------
      1          7           0       -1.430716   -1.063126   -0.430376
      2          1           0       -1.223092   -1.597760    0.407688
      3          6           0       -0.662060    0.176636   -0.445994
      4          1           0        0.102014   -1.107062   -0.530150
      5          6           0       -1.212393    1.306241    0.454836
      6          6           0        0.759149   -0.139004   -0.011076
      7          1           0       -1.239147    0.985925    1.499982
      8          1           0       -0.605273    2.211844    0.377198
      9          1           0       -2.231213    1.553989    0.145406
     10          8           0        1.075865   -1.036801    0.728147
     11          1           0       -2.426344   -0.874606   -0.456605
     12          8           0        1.650360    0.748031   -0.511407
     13          1           0        2.520097    0.516468   -0.151408
 ---------------------------------------------------------------------
 Rotational constants (GHZ):      5.0851339      3.0788604      2.3239865
 Leave Link  202 at Tue Apr 12 15:08:29 2016, MaxMem=    33554432 cpu:         0.0
 (Enter /usr/local/gau/g09/l301.exe)
 Standard basis: 6-31G (6D, 7F)
 Ernie: Thresh=  0.10000D-02 Tol=  0.10000D-05 Strict=F.
 There are    68 symmetry adapted cartesian basis functions of A   symmetry.
 There are    68 symmetry adapted basis functions of A   symmetry.
    68 basis functions,   160 primitive gaussians,    68 cartesian basis functions
    24 alpha electrons       24 beta electrons
       nuclear repulsion energy       251.0334104593 Hartrees.
 IExCor=  402 DFT=T Ex+Corr=B3LYP ExCW=0 ScaHFX=  0.200000
 ScaDFX=  0.800000  0.720000  1.000000  0.810000 ScalE2=  1.000000  1.000000
 IRadAn=      0 IRanWt=     -1 IRanGd=            0 ICorTp=0 IEmpDi=  4
 NAtoms=   13 NActive=   13 NUniq=   13 SFac= 1.00D+00 NAtFMM=   60 NAOKFM=F Big=F
 Integral buffers will be    131072 words long.
 Raffenetti 2 integral format.
 Two-electron integral symmetry is turned on.
 Leave Link  301 at Tue Apr 12 15:08:29 2016, MaxMem=    33554432 cpu:         0.0
 (Enter /usr/local/gau/g09/l302.exe)
 NPDir=0 NMtPBC=     1 NCelOv=     1 NCel=       1 NClECP=     1 NCelD=      1
         NCelK=      1 NCelE2=     1 NClLst=     1 CellRange=     0.0.
 One-electron integrals computed using PRISM.
 NBasis=    68 RedAO= T EigKep=  3.98D-03  NBF=    68
 NBsUse=    68 1.00D-06 EigRej= -1.00D+00 NBFU=    68
 Precomputing XC quadrature grid using
 IXCGrd= 4 IRadAn=           0 IRanWt=          -1 IRanGd=           0 AccXCQ= 0.00D+00.
 Generated NRdTot=       0 NPtTot=           0 NUsed=           0 NTot=          32
 NSgBfM=    68    68    68    68    68 MxSgAt=    13 MxSgA2=    13.
 Leave Link  302 at Tue Apr 12 15:08:29 2016, MaxMem=    33554432 cpu:         0.2
 (Enter /usr/local/gau/g09/l303.exe)
 DipDrv:  MaxL=1.
 Leave Link  303 at Tue Apr 12 15:08:30 2016, MaxMem=    33554432 cpu:         0.0
 (Enter /usr/local/gau/g09/l401.exe)
 ExpMin= 1.61D-01 ExpMax= 5.48D+03 ExpMxC= 8.25D+02 IAcc=1 IRadAn=         1 AccDes= 0.00D+00
 Harris functional with IExCor=  402 and IRadAn=       1 diagonalized for initial guess.
 HarFok:  IExCor=  402 AccDes= 0.00D+00 IRadAn=         1 IDoV= 1 UseB2=F ITyADJ=14
 ICtDFT=  3500011 ScaDFX=  1.000000  1.000000  1.000000  1.000000
 FoFCou: FMM=F IPFlag=           0 FMFlag=      100000 FMFlg1=           0
         NFxFlg=           0 DoJE=T BraDBF=F KetDBF=T FulRan=T
         wScrn=  0.000000 ICntrl=     500 IOpCl=  0 I1Cent=   200000004 NGrid=           0
         NMat0=    1 NMatS0=      1 NMatT0=    0 NMatD0=    1 NMtDS0=    0 NMtDT0=    0
 Petite list used in FoFCou.
 Harris En= -323.430242900202    
 JPrj=0 DoOrth=F DoCkMO=F.
 Leave Link  401 at Tue Apr 12 15:08:31 2016, MaxMem=    33554432 cpu:         0.4
 (Enter /usr/local/gau/g09/l502.exe)
 Closed shell SCF:
 Using DIIS extrapolation, IDIIS=  1040.
 Integral symmetry usage will be decided dynamically.
 Keep R1 ints in memory in canonical form, NReq=3676491.
 IVT=       33364 IEndB=       33364 NGot=    33554432 MDV=    30768038
 LenX=    30768038 LenY=    30762973
 Requested convergence on RMS density matrix=1.00D-08 within 128 cycles.
 Requested convergence on MAX density matrix=1.00D-06.
 Requested convergence on             energy=1.00D-06.
 No special actions if energy rises.
 FoFCou: FMM=F IPFlag=           0 FMFlag=           0 FMFlg1=           0
         NFxFlg=           0 DoJE=F BraDBF=F KetDBF=F FulRan=T
         wScrn=  0.000000 ICntrl=     600 IOpCl=  0 I1Cent=           0 NGrid=           0
         NMat0=    1 NMatS0=   2346 NMatT0=    0 NMatD0=    1 NMtDS0=    0 NMtDT0=    0
 Symmetry not used in FoFCou.
 Integral accuracy reduced to 1.0D-05 until final iterations.

 Cycle   1  Pass 0  IDiag  1:
 E= -323.130559893274    
 DIIS: error= 3.50D-02 at cycle   1 NSaved=   1.
 NSaved= 1 IEnMin= 1 EnMin= -323.130559893274     IErMin= 1 ErrMin= 3.50D-02
 ErrMax= 3.50D-02  0.00D+00 EMaxC= 1.00D-01 BMatC= 2.25D-01 BMatP= 2.25D-01
 IDIUse=3 WtCom= 6.50D-01 WtEn= 3.50D-01
 Coeff-Com:  0.100D+01
 Coeff-En:   0.100D+01
 Coeff:      0.100D+01
 Gap=    -0.045 Goal=   None    Shift=    0.000
 GapD=   -0.045 DampG=0.250 DampE=0.500 DampFc=0.2500 IDamp=-1.
 Damping current iteration by 2.50D-01
 RMSDP=2.58D-02 MaxDP=2.95D-01              OVMax= 7.51D-01

 Cycle   2  Pass 0  IDiag  1:
 E= -323.206459680233     Delta-E=       -0.075899786959 Rises=F Damp=T
 DIIS: error= 1.81D-02 at cycle   2 NSaved=   2.
 NSaved= 2 IEnMin= 2 EnMin= -323.206459680233     IErMin= 2 ErrMin= 1.81D-02
 ErrMax= 1.81D-02  0.00D+00 EMaxC= 1.00D-01 BMatC= 4.70D-02 BMatP= 2.25D-01
 IDIUse=3 WtCom= 8.19D-01 WtEn= 1.81D-01
 Coeff-Com: -0.507D+00 0.151D+01
 Coeff-En:   0.000D+00 0.100D+01
 Coeff:     -0.415D+00 0.142D+01
 Gap=    -0.010 Goal=   None    Shift=    0.000
 RMSDP=9.51D-03 MaxDP=1.25D-01 DE=-7.59D-02 OVMax= 7.58D-01

 Cycle   3  Pass 0  IDiag  1:
 E= -323.168016917104     Delta-E=        0.038442763129 Rises=F Damp=F
 DIIS: error= 4.79D-02 at cycle   3 NSaved=   3.
 NSaved= 3 IEnMin= 2 EnMin= -323.206459680233     IErMin= 2 ErrMin= 1.81D-02
 ErrMax= 4.79D-02  0.00D+00 EMaxC= 1.00D-01 BMatC= 1.97D-01 BMatP= 4.70D-02
 IDIUse=2 WtCom= 0.00D+00 WtEn= 1.00D+00
 Coeff-En:   0.000D+00 0.582D+00 0.418D+00
 Coeff:      0.000D+00 0.582D+00 0.418D+00
 Gap=    -0.003 Goal=   None    Shift=    0.000
 RMSDP=1.98D-02 MaxDP=2.37D-01 DE= 3.84D-02 OVMax= 7.39D-01

 Cycle   4  Pass 0  IDiag  1:
 E= -322.961995600509     Delta-E=        0.206021316595 Rises=F Damp=F
 DIIS: error= 5.26D-02 at cycle   4 NSaved=   4.
 NSaved= 4 IEnMin= 2 EnMin= -323.206459680233     IErMin= 2 ErrMin= 1.81D-02
 ErrMax= 5.26D-02  0.00D+00 EMaxC= 1.00D-01 BMatC= 3.07D-01 BMatP= 4.70D-02
 IDIUse=2 WtCom= 0.00D+00 WtEn= 1.00D+00
 EnCoef did     2 forward-backward iterations
 Coeff-En:   0.776D-01 0.000D+00 0.564D+00 0.358D+00
 Coeff:      0.776D-01 0.000D+00 0.564D+00 0.358D+00
 Gap=     0.022 Goal=   None    Shift=    0.000
 RMSDP=1.44D-02 MaxDP=1.64D-01 DE= 2.06D-01 OVMax= 5.78D-01

 Problem detected with inexpensive integrals.
 Switching to full accuracy and repeating last cycle.
 Cycle   5  Pass 1  IDiag  1:
 E= -322.962060558239     Delta-E=       -0.000064957731 Rises=F Damp=F
 DIIS: error= 5.26D-02 at cycle   1 NSaved=   1.
 NSaved= 1 IEnMin= 1 EnMin= -322.962060558239     IErMin= 1 ErrMin= 5.26D-02
 ErrMax= 5.26D-02  0.00D+00 EMaxC= 1.00D-01 BMatC= 3.07D-01 BMatP= 3.07D-01
 IDIUse=3 WtCom= 4.74D-01 WtEn= 5.26D-01
 Coeff-Com:  0.100D+01
 Coeff-En:   0.100D+01
 Coeff:      0.100D+01
 Gap=    -0.146 Goal=   None    Shift=    0.000
 GapD=   -0.146 DampG=0.250 DampE=0.500 DampFc=0.2500 IDamp=-1.
 Damping current iteration by 2.50D-01
 RMSDP=4.43D-02 MaxDP=5.49D-01 DE=-6.50D-05 OVMax= 5.63D-01

 Cycle   6  Pass 1  IDiag  1:
 E= -323.088126115510     Delta-E=       -0.126065557271 Rises=F Damp=T
 DIIS: error= 1.16D-02 at cycle   2 NSaved=   2.
 NSaved= 2 IEnMin= 2 EnMin= -323.088126115510     IErMin= 2 ErrMin= 1.16D-02
 ErrMax= 1.16D-02  0.00D+00 EMaxC= 1.00D-01 BMatC= 1.49D-02 BMatP= 3.07D-01
 IDIUse=3 WtCom= 8.84D-01 WtEn= 1.16D-01
 Coeff-Com: -0.307D-01 0.103D+01
 Coeff-En:   0.251D+00 0.749D+00
 Coeff:      0.182D-02 0.998D+00
 Gap=     0.249 Goal=   None    Shift=    0.000
 RMSDP=1.75D-02 MaxDP=1.72D-01 DE=-1.26D-01 OVMax= 4.57D-01

 Cycle   7  Pass 1  IDiag  1:
 E= -323.253885292783     Delta-E=       -0.165759177273 Rises=F Damp=F
 DIIS: error= 2.58D-02 at cycle   3 NSaved=   3.
 NSaved= 3 IEnMin= 3 EnMin= -323.253885292783     IErMin= 2 ErrMin= 1.16D-02
 ErrMax= 2.58D-02  0.00D+00 EMaxC= 1.00D-01 BMatC= 8.88D-02 BMatP= 1.49D-02
 IDIUse=2 WtCom= 0.00D+00 WtEn= 1.00D+00
 Coeff-En:   0.258D+00 0.000D+00 0.742D+00
 Coeff:      0.258D+00 0.000D+00 0.742D+00
 Gap=     0.052 Goal=   None    Shift=    0.000
 RMSDP=1.09D-02 MaxDP=9.45D-02 DE=-1.66D-01 OVMax= 2.12D-01

 Cycle   8  Pass 1  IDiag  1:
 E= -323.245138883971     Delta-E=        0.008746408812 Rises=F Damp=F
 DIIS: error= 4.68D-02 at cycle   4 NSaved=   4.
 NSaved= 4 IEnMin= 3 EnMin= -323.253885292783     IErMin= 2 ErrMin= 1.16D-02
 ErrMax= 4.68D-02  0.00D+00 EMaxC= 1.00D-01 BMatC= 1.44D-01 BMatP= 1.49D-02
 IDIUse=2 WtCom= 0.00D+00 WtEn= 1.00D+00
 EnCoef did     4 forward-backward iterations
 Coeff-En:   0.172D+00 0.000D+00 0.474D+00 0.355D+00
 Coeff:      0.172D+00 0.000D+00 0.474D+00 0.355D+00
 Gap=     0.052 Goal=   None    Shift=    0.000
 RMSDP=6.49D-03 MaxDP=9.47D-02 DE= 8.75D-03 OVMax= 1.32D-01

 Cycle   9  Pass 1  IDiag  1:
 E= -323.343585205762     Delta-E=       -0.098446321790 Rises=F Damp=F
 DIIS: error= 1.13D-02 at cycle   5 NSaved=   5.
 NSaved= 5 IEnMin= 5 EnMin= -323.343585205762     IErMin= 5 ErrMin= 1.13D-02
 ErrMax= 1.13D-02  0.00D+00 EMaxC= 1.00D-01 BMatC= 1.54D-02 BMatP= 1.49D-02
 IDIUse=3 WtCom= 8.87D-01 WtEn= 1.13D-01
 EnCoef did     1 forward-backward iterations
 Coeff-Com: -0.333D-01 0.496D-02 0.197D+00 0.179D+00 0.653D+00
 Coeff-En:   0.000D+00 0.000D+00 0.103D+00 0.825D-01 0.814D+00
 Coeff:     -0.295D-01 0.440D-02 0.186D+00 0.168D+00 0.671D+00
 Gap=     0.070 Goal=   None    Shift=    0.000
 RMSDP=3.63D-03 MaxDP=3.98D-02 DE=-9.84D-02 OVMax= 1.38D-01

 Cycle  10  Pass 1  IDiag  1:
 E= -323.358951939543     Delta-E=       -0.015366733782 Rises=F Damp=F
 DIIS: error= 3.10D-03 at cycle   6 NSaved=   6.
 NSaved= 6 IEnMin= 6 EnMin= -323.358951939543     IErMin= 6 ErrMin= 3.10D-03
 ErrMax= 3.10D-03  0.00D+00 EMaxC= 1.00D-01 BMatC= 1.40D-03 BMatP= 1.49D-02
 IDIUse=3 WtCom= 9.69D-01 WtEn= 3.10D-02
 Coeff-Com: -0.271D-01-0.188D-01 0.561D-01 0.639D-01 0.416D+00 0.510D+00
 Coeff-En:   0.000D+00 0.000D+00 0.000D+00 0.000D+00 0.125D+00 0.875D+00
 Coeff:     -0.262D-01-0.182D-01 0.544D-01 0.619D-01 0.407D+00 0.521D+00
 Gap=     0.072 Goal=   None    Shift=    0.000
 RMSDP=7.95D-04 MaxDP=7.70D-03 DE=-1.54D-02 OVMax= 2.50D-02

 Cycle  11  Pass 1  IDiag  1:
 E= -323.360229942001     Delta-E=       -0.001278002458 Rises=F Damp=F
 DIIS: error= 6.05D-04 at cycle   7 NSaved=   7.
 NSaved= 7 IEnMin= 7 EnMin= -323.360229942001     IErMin= 7 ErrMin= 6.05D-04
 ErrMax= 6.05D-04  0.00D+00 EMaxC= 1.00D-01 BMatC= 3.21D-05 BMatP= 1.40D-03
 IDIUse=3 WtCom= 9.94D-01 WtEn= 6.05D-03
 Coeff-Com: -0.148D-02-0.720D-03-0.208D-02-0.184D-02 0.284D-01 0.188D+00
 Coeff-Com:  0.789D+00
 Coeff-En:   0.000D+00 0.000D+00 0.000D+00 0.000D+00 0.000D+00 0.000D+00
 Coeff-En:   0.100D+01
 Coeff:     -0.147D-02-0.716D-03-0.207D-02-0.183D-02 0.282D-01 0.187D+00
 Coeff:      0.791D+00
 Gap=     0.072 Goal=   None    Shift=    0.000
 RMSDP=2.81D-04 MaxDP=2.79D-03 DE=-1.28D-03 OVMax= 1.08D-02

 Cycle  12  Pass 1  IDiag  1:
 E= -323.360262753992     Delta-E=       -0.000032811991 Rises=F Damp=F
 DIIS: error= 3.18D-04 at cycle   8 NSaved=   8.
 NSaved= 8 IEnMin= 8 EnMin= -323.360262753992     IErMin= 8 ErrMin= 3.18D-04
 ErrMax= 3.18D-04  0.00D+00 EMaxC= 1.00D-01 BMatC= 1.22D-05 BMatP= 3.21D-05
 IDIUse=3 WtCom= 9.97D-01 WtEn= 3.18D-03
 Coeff-Com:  0.129D-02-0.283D-02-0.543D-02-0.335D-02 0.656D-03 0.827D-01
 Coeff-Com:  0.480D+00 0.447D+00
 Coeff-En:   0.000D+00 0.000D+00 0.000D+00 0.000D+00 0.000D+00 0.000D+00
 Coeff-En:   0.202D+00 0.798D+00
 Coeff:      0.128D-02-0.283D-02-0.542D-02-0.334D-02 0.654D-03 0.825D-01
 Coeff:      0.479D+00 0.448D+00
 Gap=     0.072 Goal=   None    Shift=    0.000
 RMSDP=5.02D-05 MaxDP=4.64D-04 DE=-3.28D-05 OVMax= 7.25D-04

 Cycle  13  Pass 1  IDiag  1:
 E= -323.360272639147     Delta-E=       -0.000009885156 Rises=F Damp=F
 DIIS: error= 1.53D-04 at cycle   9 NSaved=   9.
 NSaved= 9 IEnMin= 9 EnMin= -323.360272639147     IErMin= 9 ErrMin= 1.53D-04
 ErrMax= 1.53D-04  0.00D+00 EMaxC= 1.00D-01 BMatC= 2.70D-06 BMatP= 1.22D-05
 IDIUse=3 WtCom= 9.98D-01 WtEn= 1.53D-03
 Coeff-Com: -0.241D-03 0.143D-02-0.262D-02-0.183D-02 0.278D-02-0.218D-01
 Coeff-Com: -0.132D-01-0.115D-01 0.105D+01
 Coeff-En:   0.000D+00 0.000D+00 0.000D+00 0.000D+00 0.000D+00 0.000D+00
 Coeff-En:   0.000D+00 0.000D+00 0.100D+01
 Coeff:     -0.240D-03 0.142D-02-0.262D-02-0.183D-02 0.277D-02-0.217D-01
 Coeff:     -0.132D-01-0.114D-01 0.105D+01
 Gap=     0.071 Goal=   None    Shift=    0.000
 RMSDP=3.63D-05 MaxDP=2.40D-04 DE=-9.89D-06 OVMax= 7.10D-04

 Cycle  14  Pass 1  IDiag  1:
 E= -323.360275374493     Delta-E=       -0.000002735346 Rises=F Damp=F
 DIIS: error= 5.76D-05 at cycle  10 NSaved=  10.
 NSaved=10 IEnMin=10 EnMin= -323.360275374493     IErMin=10 ErrMin= 5.76D-05
 ErrMax= 5.76D-05  0.00D+00 EMaxC= 1.00D-01 BMatC= 3.07D-07 BMatP= 2.70D-06
 IDIUse=1 WtCom= 1.00D+00 WtEn= 0.00D+00
 Coeff-Com: -0.143D-03 0.450D-03-0.870D-03 0.444D-04 0.194D-02-0.151D-01
 Coeff-Com: -0.465D-01-0.839D-01 0.289D+00 0.856D+00
 Coeff:     -0.143D-03 0.450D-03-0.870D-03 0.444D-04 0.194D-02-0.151D-01
 Coeff:     -0.465D-01-0.839D-01 0.289D+00 0.856D+00
 Gap=     0.071 Goal=   None    Shift=    0.000
 RMSDP=1.53D-05 MaxDP=1.26D-04 DE=-2.74D-06 OVMax= 2.80D-04

 Cycle  15  Pass 1  IDiag  1:
 E= -323.360275730995     Delta-E=       -0.000000356502 Rises=F Damp=F
 DIIS: error= 1.04D-05 at cycle  11 NSaved=  11.
 NSaved=11 IEnMin=11 EnMin= -323.360275730995     IErMin=11 ErrMin= 1.04D-05
 ErrMax= 1.04D-05  0.00D+00 EMaxC= 1.00D-01 BMatC= 1.45D-08 BMatP= 3.07D-07
 IDIUse=1 WtCom= 1.00D+00 WtEn= 0.00D+00
 Coeff-Com: -0.438D-04 0.172D-03-0.236D-03 0.234D-03 0.664D-03-0.584D-02
 Coeff-Com: -0.217D-01-0.462D-01 0.355D-01 0.421D+00 0.617D+00
 Coeff:     -0.438D-04 0.172D-03-0.236D-03 0.234D-03 0.664D-03-0.584D-02
 Coeff:     -0.217D-01-0.462D-01 0.355D-01 0.421D+00 0.617D+00
 Gap=     0.071 Goal=   None    Shift=    0.000
 RMSDP=3.28D-06 MaxDP=3.04D-05 DE=-3.57D-07 OVMax= 7.38D-05

 Cycle  16  Pass 1  IDiag  1:
 E= -323.360275747832     Delta-E=       -0.000000016836 Rises=F Damp=F
 DIIS: error= 2.48D-06 at cycle  12 NSaved=  12.
 NSaved=12 IEnMin=12 EnMin= -323.360275747832     IErMin=12 ErrMin= 2.48D-06
 ErrMax= 2.48D-06  0.00D+00 EMaxC= 1.00D-01 BMatC= 8.05D-10 BMatP= 1.45D-08
 IDIUse=1 WtCom= 1.00D+00 WtEn= 0.00D+00
 Coeff-Com:  0.205D-05-0.770D-05-0.149D-04 0.629D-04-0.758D-06 0.171D-03
 Coeff-Com:  0.269D-03-0.401D-02-0.224D-01 0.154D-01 0.166D+00 0.845D+00
 Coeff:      0.205D-05-0.770D-05-0.149D-04 0.629D-04-0.758D-06 0.171D-03
 Coeff:      0.269D-03-0.401D-02-0.224D-01 0.154D-01 0.166D+00 0.845D+00
 Gap=     0.071 Goal=   None    Shift=    0.000
 RMSDP=9.09D-07 MaxDP=6.97D-06 DE=-1.68D-08 OVMax= 1.78D-05

 Cycle  17  Pass 1  IDiag  1:
 E= -323.360275748812     Delta-E=       -0.000000000981 Rises=F Damp=F
 DIIS: error= 4.73D-07 at cycle  13 NSaved=  13.
 NSaved=13 IEnMin=13 EnMin= -323.360275748812     IErMin=13 ErrMin= 4.73D-07
 ErrMax= 4.73D-07  0.00D+00 EMaxC= 1.00D-01 BMatC= 3.22D-11 BMatP= 8.05D-10
 IDIUse=1 WtCom= 1.00D+00 WtEn= 0.00D+00
 Coeff-Com: -0.171D-06-0.441D-05-0.253D-05 0.870D-05-0.352D-05 0.168D-03
 Coeff-Com:  0.625D-03-0.442D-03-0.714D-02-0.679D-02 0.366D-01 0.307D+00
 Coeff-Com:  0.670D+00
 Coeff:     -0.171D-06-0.441D-05-0.253D-05 0.870D-05-0.352D-05 0.168D-03
 Coeff:      0.625D-03-0.442D-03-0.714D-02-0.679D-02 0.366D-01 0.307D+00
 Coeff:      0.670D+00
 Gap=     0.071 Goal=   None    Shift=    0.000
 RMSDP=1.07D-07 MaxDP=8.70D-07 DE=-9.81D-10 OVMax= 1.10D-06

 Cycle  18  Pass 1  IDiag  1:
 E= -323.360275748844     Delta-E=       -0.000000000031 Rises=F Damp=F
 DIIS: error= 1.55D-07 at cycle  14 NSaved=  14.
 NSaved=14 IEnMin=14 EnMin= -323.360275748844     IErMin=14 ErrMin= 1.55D-07
 ErrMax= 1.55D-07  0.00D+00 EMaxC= 1.00D-01 BMatC= 2.36D-12 BMatP= 3.22D-11
 IDIUse=1 WtCom= 1.00D+00 WtEn= 0.00D+00
 Coeff-Com:  0.131D-06-0.232D-05 0.276D-05 0.115D-06 0.397D-05 0.154D-04
 Coeff-Com:  0.417D-04-0.688D-04-0.827D-03-0.266D-02-0.744D-03 0.420D-01
 Coeff-Com:  0.237D+00 0.725D+00
 Coeff:      0.131D-06-0.232D-05 0.276D-05 0.115D-06 0.397D-05 0.154D-04
 Coeff:      0.417D-04-0.688D-04-0.827D-03-0.266D-02-0.744D-03 0.420D-01
 Coeff:      0.237D+00 0.725D+00
 Gap=     0.071 Goal=   None    Shift=    0.000
 RMSDP=4.83D-08 MaxDP=3.45D-07 DE=-3.13D-11 OVMax= 1.08D-06

 Cycle  19  Pass 1  IDiag  1:
 E= -323.360275748848     Delta-E=       -0.000000000004 Rises=F Damp=F
 DIIS: error= 5.00D-08 at cycle  15 NSaved=  15.
 NSaved=15 IEnMin=15 EnMin= -323.360275748848     IErMin=15 ErrMin= 5.00D-08
 ErrMax= 5.00D-08  0.00D+00 EMaxC= 1.00D-01 BMatC= 2.64D-13 BMatP= 2.36D-12
 IDIUse=1 WtCom= 1.00D+00 WtEn= 0.00D+00
 Coeff-Com: -0.484D-07 0.182D-07 0.862D-06-0.285D-06-0.101D-05-0.779D-05
 Coeff-Com: -0.459D-05 0.822D-06 0.181D-03 0.397D-03-0.123D-02-0.438D-02
 Coeff-Com: -0.135D-01 0.963D-01 0.922D+00
 Coeff:     -0.484D-07 0.182D-07 0.862D-06-0.285D-06-0.101D-05-0.779D-05
 Coeff:     -0.459D-05 0.822D-06 0.181D-03 0.397D-03-0.123D-02-0.438D-02
 Coeff:     -0.135D-01 0.963D-01 0.922D+00
 Gap=     0.071 Goal=   None    Shift=    0.000
 RMSDP=1.37D-08 MaxDP=1.50D-07 DE=-4.09D-12 OVMax= 2.93D-07

 Cycle  20  Pass 1  IDiag  1:
 E= -323.360275748846     Delta-E=        0.000000000002 Rises=F Damp=F
 DIIS: error= 4.09D-09 at cycle  16 NSaved=  16.
 NSaved=16 IEnMin=15 EnMin= -323.360275748848     IErMin=16 ErrMin= 4.09D-09
 ErrMax= 4.09D-09  0.00D+00 EMaxC= 1.00D-01 BMatC= 1.47D-15 BMatP= 2.64D-13
 IDIUse=1 WtCom= 1.00D+00 WtEn= 0.00D+00
 Large coefficients: NSaved= 16 BigCof=    0.00 CofMax=   10.00 Det=-7.15D-15
 Inversion failed.  Reducing to 15 matrices.
 Coeff-Com:  0.527D-07 0.529D-07 0.429D-07-0.482D-06-0.957D-06-0.112D-06
 Coeff-Com:  0.191D-05 0.392D-04 0.105D-03-0.131D-03-0.212D-02-0.130D-01
 Coeff-Com: -0.190D-01 0.435D-01 0.991D+00
 Coeff:      0.527D-07 0.529D-07 0.429D-07-0.482D-06-0.957D-06-0.112D-06
 Coeff:      0.191D-05 0.392D-04 0.105D-03-0.131D-03-0.212D-02-0.130D-01
 Coeff:     -0.190D-01 0.435D-01 0.991D+00
 Gap=     0.071 Goal=   None    Shift=    0.000
 RMSDP=2.54D-09 MaxDP=2.83D-08 DE= 1.82D-12 OVMax= 6.63D-08

 SCF Done:  E(RB3LYP) =  -323.360275749     A.U. after   20 cycles
            NFock= 20  Conv=0.25D-08     -V/T= 2.0036
 KE= 3.221898385929D+02 PE=-1.259054270248D+03 EE= 3.624707454472D+02
 Leave Link  502 at Tue Apr 12 15:09:10 2016, MaxMem=    33554432 cpu:        18.5
 (Enter /usr/local/gau/g09/l801.exe)
 DoSCS=F DFT=T ScalE2(SS,OS)=  1.000000  1.000000
 Range of M.O.s used for correlation:     1    68
 NBasis=    68 NAE=    24 NBE=    24 NFC=     0 NFV=     0
 NROrb=     68 NOA=    24 NOB=    24 NVA=    44 NVB=    44

 **** Warning!!: The smallest alpha delta epsilon is  0.71132118D-01

 Leave Link  801 at Tue Apr 12 15:09:10 2016, MaxMem=    33554432 cpu:         0.0
 (Enter /usr/local/gau/g09/l1101.exe)
 Using compressed storage, NAtomX=    13.
 Will process     14 centers per pass.
 Leave Link 1101 at Tue Apr 12 15:09:10 2016, MaxMem=    33554432 cpu:         0.1
 (Enter /usr/local/gau/g09/l1102.exe)
 Symmetrizing basis deriv contribution to polar:
 IMax=3 JMax=2 DiffMx= 0.00D+00
 Leave Link 1102 at Tue Apr 12 15:09:10 2016, MaxMem=    33554432 cpu:         0.0
 (Enter /usr/local/gau/g09/l1110.exe)
 Forming Gx(P) for the SCF density, NAtomX=    13.
 Integral derivatives from FoFJK, PRISM(SPDF).
 Do as many integral derivatives as possible in FoFJK.
 G2DrvN: MDV=      33554224.
 G2DrvN: will do    14 centers at a time, making    1 passes.
 Calling FoFCou, ICntrl=  3107 FMM=F I1Cent=   0 AccDes= 0.00D+00.
 FoFJK:  IHMeth= 1 ICntrl=    3107 DoSepK=F KAlg= 0 I1Cent=   0 FoldK=F
 IRaf=         0 NMat=   1 IRICut=       1 DoRegI=T DoRafI=F ISym2E= 0.
 FoFCou: FMM=F IPFlag=           0 FMFlag=      100000 FMFlg1=           0
         NFxFlg=           0 DoJE=F BraDBF=F KetDBF=F FulRan=T
         wScrn=  0.000000 ICntrl=    3107 IOpCl=  0 I1Cent=           0 NGrid=           0
         NMat0=    1 NMatS0=      1 NMatT0=    0 NMatD0=    1 NMtDS0=    0 NMtDT0=    0
 Symmetry not used in FoFCou.
 End of G2Drv F.D. properties file   721 does not exist.
 End of G2Drv F.D. properties file   722 does not exist.
 End of G2Drv F.D. properties file   788 does not exist.
 Leave Link 1110 at Tue Apr 12 15:09:54 2016, MaxMem=    33554432 cpu:        21.5
 (Enter /usr/local/gau/g09/l1002.exe)
 Minotr:  Closed shell wavefunction.
          IDoAtm=1111111111111
          Direct CPHF calculation.
          Differentiating once with respect to nuclear coordinates.
          Requested convergence is 1.0D-08 RMS, and 1.0D-07 maximum.
          Secondary convergence is 1.0D-12 RMS, and 1.0D-12 maximum.
          NewPWx=T KeepS1=F KeepF1=F KeepIn=T MapXYZ=F SortEE=F KeepMc=T.
          MDV=      33554230 using IRadAn=       2.
 Generate precomputed XC quadrature information.
 Keep R1 ints in memory in canonical form, NReq=3645290.
 FoFCou: FMM=F IPFlag=           0 FMFlag=           0 FMFlg1=           0
         NFxFlg=           0 DoJE=F BraDBF=F KetDBF=F FulRan=T
         wScrn=  0.000000 ICntrl=     600 IOpCl=  0 I1Cent=           0 NGrid=           0
         NMat0=    1 NMatS0=   2346 NMatT0=    0 NMatD0=    1 NMtDS0=    0 NMtDT0=    0
 Symmetry not used in FoFCou.
          Solving linear equations simultaneously, MaxMat=       0.
          There are    42 degrees of freedom in the 1st order CPHF.  IDoFFX=6 NUNeed=     0.
     36 vectors produced by pass  0 Test12= 2.51D-15 2.38D-09 XBig12= 2.29D-01 3.50D-01.
 AX will form    36 AO Fock derivatives at one time.
     36 vectors produced by pass  1 Test12= 2.51D-15 2.38D-09 XBig12= 5.12D-02 4.21D-02.
     36 vectors produced by pass  2 Test12= 2.51D-15 2.38D-09 XBig12= 3.54D-04 3.23D-03.
     36 vectors produced by pass  3 Test12= 2.51D-15 2.38D-09 XBig12= 5.65D-07 1.22D-04.
     36 vectors produced by pass  4 Test12= 2.51D-15 2.38D-09 XBig12= 4.57D-10 3.30D-06.
     18 vectors produced by pass  5 Test12= 2.51D-15 2.38D-09 XBig12= 2.48D-13 7.51D-08.
 InvSVY:  IOpt=1 It=  1 EMax= 1.78D-15
 Solved reduced A of dimension   198 with    36 vectors.
 End of Minotr F.D. properties file   721 does not exist.
 End of Minotr F.D. properties file   722 does not exist.
 End of Minotr F.D. properties file   788 does not exist.
 Leave Link 1002 at Tue Apr 12 15:10:26 2016, MaxMem=    33554432 cpu:        14.3
 (Enter /usr/local/gau/g09/l601.exe)
 Copying SCF densities to generalized density rwf, IOpCl= 0 IROHF=0.

 **********************************************************************

            Population analysis using the SCF density.

 **********************************************************************

 Orbital symmetries:
       Occupied  (A) (A) (A) (A) (A) (A) (A) (A) (A) (A) (A) (A)
                 (A) (A) (A) (A) (A) (A) (A) (A) (A) (A) (A) (A)
       Virtual   (A) (A) (A) (A) (A) (A) (A) (A) (A) (A) (A) (A)
                 (A) (A) (A) (A) (A) (A) (A) (A) (A) (A) (A) (A)
                 (A) (A) (A) (A) (A) (A) (A) (A) (A) (A) (A) (A)
                 (A) (A) (A) (A) (A) (A) (A) (A)
 The electronic state is 1-A.
 Alpha  occ. eigenvalues --  -19.19290 -19.18239 -14.34693 -10.33138 -10.20775
 Alpha  occ. eigenvalues --  -10.18848  -1.16495  -1.06748  -0.93915  -0.75957
 Alpha  occ. eigenvalues --   -0.70356  -0.61608  -0.54039  -0.51442  -0.49812
 Alpha  occ. eigenvalues --   -0.47968  -0.41839  -0.41607  -0.40928  -0.38107
 Alpha  occ. eigenvalues --   -0.34256  -0.31914  -0.28721  -0.16185
 Alpha virt. eigenvalues --   -0.09072   0.04194   0.06770   0.10650   0.13168
 Alpha virt. eigenvalues --    0.13966   0.16939   0.17560   0.22654   0.24464
 Alpha virt. eigenvalues --    0.25801   0.29648   0.38063   0.52871   0.54075
 Alpha virt. eigenvalues --    0.56893   0.57648   0.62528   0.64253   0.68793
 Alpha virt. eigenvalues --    0.70264   0.72059   0.74964   0.79137   0.81241
 Alpha virt. eigenvalues --    0.83751   0.86041   0.91382   0.91926   0.94352
 Alpha virt. eigenvalues --    0.95309   0.96376   0.99810   1.00500   1.02903
 Alpha virt. eigenvalues --    1.04804   1.10181   1.15925   1.23878   1.29778
 Alpha virt. eigenvalues --    1.48141   1.66440   1.79593   1.97233
          Condensed to atoms (all electrons):
               1          2          3          4          5          6
     1  N    7.178321   0.239824   0.151965   0.064528  -0.088752  -0.112901
     2  H    0.239824   0.553796  -0.089465  -0.000516   0.011169  -0.005098
     3  C    0.151965  -0.089465   5.699747  -0.063175   0.356578   0.324706
     4  H    0.064528  -0.000516  -0.063175   0.444142   0.014938   0.047810
     5  C   -0.088752   0.011169   0.356578   0.014938   5.105649  -0.049591
     6  C   -0.112901  -0.005098   0.324706   0.047810  -0.049591   5.280797
     7  H    0.001400   0.009281  -0.100134   0.001701   0.372473  -0.015162
     8  H    0.005276  -0.000053  -0.023212  -0.000954   0.351423  -0.002022
     9  H   -0.002685  -0.002107  -0.031265  -0.000444   0.362566   0.004137
    10  O   -0.004541   0.020459  -0.160952   0.065300   0.003238   0.253184
    11  H    0.329751  -0.028601  -0.025591   0.000776  -0.002486   0.007442
    12  O    0.004481   0.000009  -0.108174  -0.010059  -0.004738   0.108382
    13  H   -0.000389   0.000042   0.008884   0.000145  -0.000207  -0.014697
               7          8          9         10         11         12
     1  N    0.001400   0.005276  -0.002685  -0.004541   0.329751   0.004481
     2  H    0.009281  -0.000053  -0.002107   0.020459  -0.028601   0.000009
     3  C   -0.100134  -0.023212  -0.031265  -0.160952  -0.025591  -0.108174
     4  H    0.001701  -0.000954  -0.000444   0.065300   0.000776  -0.010059
     5  C    0.372473   0.351423   0.362566   0.003238  -0.002486  -0.004738
     6  C   -0.015162  -0.002022   0.004137   0.253184   0.007442   0.108382
     7  H    0.688075  -0.027771  -0.057967   0.006078  -0.000030  -0.000239
     8  H   -0.027771   0.546399  -0.023348  -0.000002  -0.000090   0.004129
     9  H   -0.057967  -0.023348   0.605509  -0.000219   0.004684   0.000060
    10  O    0.006078  -0.000002  -0.000219   8.326911  -0.000087  -0.115027
    11  H   -0.000030  -0.000090   0.004684  -0.000087   0.385040  -0.000075
    12  O   -0.000239   0.004129   0.000060  -0.115027  -0.000075   8.396616
    13  H    0.000073  -0.000136   0.000005   0.003425   0.000007   0.225476
              13
     1  N   -0.000389
     2  H    0.000042
     3  C    0.008884
     4  H    0.000145
     5  C   -0.000207
     6  C   -0.014697
     7  H    0.000073
     8  H   -0.000136
     9  H    0.000005
    10  O    0.003425
    11  H    0.000007
    12  O    0.225476
    13  H    0.403319
 Mulliken charges:
               1
     1  N   -0.766277
     2  H    0.291259
     3  C    0.060090
     4  H    0.435808
     5  C   -0.432258
     6  C    0.173014
     7  H    0.122221
     8  H    0.170362
     9  H    0.141072
    10  O   -0.397767
    11  H    0.329262
    12  O   -0.500839
    13  H    0.374054
 Sum of Mulliken charges =   0.00000
 Mulliken charges with hydrogens summed into heavy atoms:
               1
     1  N   -0.145757
     3  C    0.060090
     5  C    0.001398
     6  C    0.608822
    10  O   -0.397767
    12  O   -0.126785
 APT charges:
               1
     1  N   -1.133256
     2  H    0.358332
     3  C    0.200924
     4  H    0.322354
     5  C   -1.248595
     6  C   -0.094763
     7  H    0.286845
     8  H    0.378732
     9  H    0.478470
    10  O   -0.250534
    11  H    0.670647
    12  O   -0.642248
    13  H    0.673092
 Sum of APT charges =   0.00000
 APT charges with hydrogens summed into heavy atoms:
               1
     1  N   -0.104277
     3  C    0.200924
     5  C   -0.104547
     6  C    0.227591
    10  O   -0.250534
    12  O    0.030844
 Electronic spatial extent (au):  <R**2>=            575.6263
 Charge=              0.0000 electrons
 Dipole moment (field-independent basis, Debye):
    X=             -0.5367    Y=             -0.0930    Z=              1.5224  Tot=              1.6169
 Quadrupole moment (field-independent basis, Debye-Ang):
   XX=            -27.2845   YY=            -38.9598   ZZ=            -41.8584
   XY=              1.8062   XZ=             -1.9758   YZ=              2.2796
 Traceless Quadrupole moment (field-independent basis, Debye-Ang):
   XX=              8.7497   YY=             -2.9255   ZZ=             -5.8242
   XY=              1.8062   XZ=             -1.9758   YZ=              2.2796
 Octapole moment (field-independent basis, Debye-Ang**2):
  XXX=             12.3751  YYY=              0.0727  ZZZ=              5.5159  XYY=             -1.1463
  XXY=              0.3041  XXZ=              0.3552  XZZ=              3.2433  YZZ=             -0.0322
  YYZ=              2.6968  XYZ=              6.3926
 Hexadecapole moment (field-independent basis, Debye-Ang**3):
 XXXX=           -271.0918 YYYY=           -236.4116 ZZZZ=           -101.1315 XXXY=             27.1487
 XXXZ=              4.4066 YYYX=              5.3403 YYYZ=             -5.3426 ZZZX=             -2.6549
 ZZZY=             -3.3428 XXYY=           -105.6957 XXZZ=            -85.3542 YYZZ=            -61.1106
 XXYZ=              1.3670 YYXZ=             -6.2223 ZZXY=              0.6660
 N-N= 2.510334104593D+02 E-N=-1.259054270120D+03  KE= 3.221898385929D+02
  Exact polarizability:   0.000   0.000   0.000   0.000   0.000   0.000
 Approx polarizability: 114.381 -19.562  82.543  27.787 -22.200  63.639
 No NMR shielding tensors so no spin-rotation constants.
 Leave Link  601 at Tue Apr 12 15:10:26 2016, MaxMem=    33554432 cpu:         0.1
 (Enter /usr/local/gau/g09/l701.exe)
 Compute integral second derivatives.
 ... and contract with generalized density number  0.
 Leave Link  701 at Tue Apr 12 15:10:27 2016, MaxMem=    33554432 cpu:         0.1
 (Enter /usr/local/gau/g09/l702.exe)
 L702 exits ... SP integral derivatives will be done elsewhere.
 Leave Link  702 at Tue Apr 12 15:10:27 2016, MaxMem=    33554432 cpu:         0.0
 (Enter /usr/local/gau/g09/l703.exe)
 Compute integral second derivatives, UseDBF=F ICtDFT=           0.
 Integral derivatives from FoFJK, PRISM(SPDF).
 Calling FoFJK, ICntrl=    100147 FMM=F ISym2X=0 I1Cent= 0 IOpClX= 0 NMat=1 NMatS=1 NMatT=0.
 FoFJK:  IHMeth= 1 ICntrl=  100147 DoSepK=F KAlg= 0 I1Cent=   0 FoldK=F
 IRaf=         0 NMat=   1 IRICut=       1 DoRegI=T DoRafI=F ISym2E= 0.
 FoFCou: FMM=F IPFlag=           0 FMFlag=      100000 FMFlg1=         800
         NFxFlg=           0 DoJE=F BraDBF=F KetDBF=F FulRan=T
         wScrn=  0.000000 ICntrl=  100147 IOpCl=  0 I1Cent=           0 NGrid=           0
         NMat0=    1 NMatS0=      1 NMatT0=    0 NMatD0=    1 NMtDS0=    0 NMtDT0=    0
 Symmetry not used in FoFCou.
 Leave Link  703 at Tue Apr 12 15:11:17 2016, MaxMem=    33554432 cpu:        23.3
 (Enter /usr/local/gau/g09/l716.exe)
 Dipole        =-2.11136976D-01-3.66044303D-02 5.98959509D-01
 Polarizability= 0.00000000D+00 0.00000000D+00 0.00000000D+00
                 0.00000000D+00 0.00000000D+00 0.00000000D+00
 ***** Axes restored to original set *****
 -------------------------------------------------------------------
 Center     Atomic                   Forces (Hartrees/Bohr)
 Number     Number              X              Y              Z
 -------------------------------------------------------------------
      1        7           0.006644171   -0.016587023    0.026758841
      2        1          -0.014272332   -0.011989951    0.023184957
      3        6           0.029556660    0.028876655    0.021490093
      4        1          -0.014461046   -0.015283410   -0.042284993
      5        6           0.003771992    0.007910269   -0.023794841
      6        6          -0.076924739    0.120525001   -0.068327649
      7        1           0.000561882   -0.003664482    0.007282721
      8        1          -0.000681563    0.000643629    0.000632203
      9        1          -0.001986507    0.002805399   -0.001433905
     10        8           0.046388786   -0.124986870    0.072128685
     11        1          -0.002355225   -0.008074999   -0.018115159
     12        8           0.008149721    0.016062152   -0.002670835
     13        1           0.015608200    0.003763629    0.005149881
 -------------------------------------------------------------------
 Cartesian Forces:  Max     0.124986870 RMS     0.037943462
 Force constants in Cartesian coordinates: 
                1             2             3             4             5 
      1  0.620460D+00
      2  0.882438D-02  0.394695D+00
      3  0.897024D-01 -0.158623D+00  0.316529D+00
      4 -0.606467D-01  0.259231D-01 -0.572827D-01  0.811767D-01
      5  0.349519D-01 -0.139504D+00  0.144837D+00 -0.328128D-01  0.167774D+00
      6 -0.105838D+00  0.176781D+00 -0.262867D+00  0.702995D-01 -0.187553D+00
      7 -0.123125D+00 -0.477845D-01 -0.123443D-01  0.188340D-02 -0.602664D-02
      8 -0.148145D+00 -0.166661D+00  0.353886D-01 -0.696168D-02 -0.362652D-01
      9 -0.152809D-01 -0.317674D-01 -0.339238D-01  0.101549D-01  0.238674D-01
     10  0.580613D-01 -0.419783D-01  0.354194D-01 -0.217972D-01 -0.310015D-02
     11  0.702815D-01 -0.957310D-02  0.160054D-02 -0.118746D-01  0.513917D-02
     12  0.188436D-02 -0.999675D-02  0.145354D-03  0.143410D-01  0.707769D-02
     13 -0.518602D-02 -0.269298D-01 -0.831902D-02  0.125946D-02 -0.463378D-03
     14  0.300588D-01 -0.405943D-01 -0.219439D-01 -0.431441D-02  0.125486D-02
     15 -0.170868D-01  0.643881D-02 -0.640725D-02  0.474260D-02  0.632478D-02
     16 -0.647031D-01  0.144349D-01 -0.138153D-01  0.699526D-02  0.558601D-02
     17 -0.640492D-01  0.278436D-02 -0.245867D-01 -0.829459D-03 -0.114486D-03
     18 -0.115791D-01  0.259771D-01 -0.124141D-01  0.829108D-02  0.476791D-02
     19  0.438554D-02 -0.119026D-02 -0.554651D-03 -0.786198D-03  0.340182D-03
     20 -0.637192D-02  0.687168D-02  0.116563D-02  0.195699D-02 -0.213202D-03
     21 -0.777653D-02  0.194845D-02  0.353135D-02  0.100579D-02 -0.177725D-02
     22  0.226494D-03  0.362467D-02  0.104310D-02  0.124173D-03  0.274322D-03
     23  0.228090D-02 -0.481033D-02 -0.289928D-02 -0.172120D-03  0.623045D-04
     24  0.209368D-02 -0.587836D-02 -0.655565D-03 -0.194761D-03 -0.990776D-03
     25  0.383084D-02 -0.346599D-03  0.250546D-03 -0.534561D-03  0.512292D-03
     26  0.155285D-02  0.187077D-02  0.150465D-02 -0.612210D-03 -0.760031D-03
     27  0.233270D-02  0.178669D-02  0.244768D-03 -0.798017D-03 -0.307712D-03
     28  0.903457D-02  0.269680D-02  0.182055D-02 -0.118433D-02  0.209102D-03
     29 -0.227871D-01  0.162432D-01 -0.415937D-02  0.719696D-02  0.315664D-02
     30  0.298267D-01 -0.132154D-01  0.791558D-02 -0.897718D-02 -0.417728D-02
     31 -0.428052D+00  0.625606D-01 -0.328604D-01 -0.743553D-02  0.526376D-03
     32  0.934505D-01 -0.541562D-01  0.242766D-01  0.239085D-01 -0.409098D-03
     33  0.401984D-01  0.730308D-02 -0.152052D-01 -0.409159D-01  0.861254D-02
     34 -0.112784D-01 -0.133963D-02 -0.339567D-02  0.744697D-03  0.357070D-04
     35  0.322367D-02 -0.696576D-02  0.342981D-02 -0.166523D-02 -0.817614D-04
     36 -0.608722D-02  0.263648D-03  0.151860D-02 -0.755238D-03 -0.277783D-03
     37 -0.300728D-02  0.150467D-02  0.336020D-03  0.200835D-03 -0.329244D-04
     38 -0.327099D-02 -0.200094D-03  0.995216D-05  0.256960D-03 -0.392203D-04
     39 -0.238987D-02 -0.101727D-02  0.158833D-02  0.888541D-04 -0.403128D-03
                6             7             8             9            10 
      6  0.270360D+00
      7  0.176147D-01  0.360021D+00
      8 -0.447774D-02  0.283423D-01  0.401125D+00
      9  0.339435D-02 -0.559891D-01  0.471648D-01  0.937942D-01
     10  0.205004D-01  0.417113D-02  0.951093D-01 -0.442223D-01 -0.639327D-01
     11  0.189954D-01  0.535611D-01  0.358652D-01  0.903654D-02 -0.102766D-01
     12 -0.293208D-02  0.227836D-01 -0.148335D-01  0.299623D-01  0.942321D-04
     13 -0.235384D-02 -0.650675D-01  0.238656D-01  0.477277D-01  0.910616D-02
     14  0.300216D-03 -0.857659D-02 -0.848458D-01 -0.417671D-01 -0.261651D-01
     15  0.112621D-02  0.503018D-01 -0.738678D-01 -0.367768D-01  0.241581D-01
     16 -0.123160D-01 -0.956252D-01 -0.244194D-01  0.796627D-01  0.523170D-01
     17  0.794573D-02 -0.244753D-01 -0.111201D+00 -0.211128D-01 -0.602530D-01
     18 -0.613464D-02 -0.350191D-01 -0.477038D-02 -0.910530D-02  0.446654D-01
     19 -0.289823D-03 -0.529830D-02  0.442924D-02  0.910810D-02 -0.552600D-02
     20  0.842854D-03  0.119857D-01 -0.539856D-02 -0.178742D-01  0.814686D-02
     21 -0.694488D-03  0.161833D-01 -0.100508D-01 -0.179378D-01  0.700615D-02
     22  0.200044D-03  0.535247D-02  0.109778D-01 -0.556054D-03  0.609979D-03
     23 -0.531284D-03 -0.107821D-01 -0.168767D-01  0.322362D-03 -0.188372D-02
     24 -0.511920D-03 -0.116818D-01 -0.153887D-01 -0.230454D-02 -0.215778D-02
     25 -0.475047D-03 -0.109225D-01  0.263762D-02  0.271570D-02 -0.111005D-02
     26  0.441617D-03  0.195411D-01 -0.817728D-02 -0.986982D-02 -0.256929D-02
     27 -0.307507D-04  0.188675D-01 -0.747320D-02 -0.595388D-02 -0.330668D-02
     28  0.263997D-02 -0.120274D-01  0.410250D-01 -0.331236D-01 -0.250634D-01
     29 -0.140258D-01  0.362961D-01 -0.297212D-01  0.615663D-01  0.597430D-01
     30  0.341841D-02 -0.270886D-02  0.431403D-01 -0.279810D-01 -0.604235D-01
     31  0.741129D-02 -0.197268D-01  0.696334D-02  0.467693D-02  0.239503D-02
     32  0.561846D-04 -0.419059D-01  0.611100D-02 -0.581746D-02 -0.835286D-02
     33 -0.465123D-02 -0.395126D-02  0.966786D-02 -0.482899D-02 -0.249339D-01
     34  0.290219D-02 -0.410677D-01 -0.233700D-01 -0.766273D-02 -0.970059D-02
     35  0.103890D-02 -0.833556D-02  0.209299D-01 -0.157826D-01 -0.722933D-02
     36 -0.702896D-03 -0.421615D-02 -0.377984D-02  0.868095D-02  0.754387D-03
     37 -0.295624D-03  0.143236D-02 -0.104539D-01  0.278875D-02  0.469376D-03
     38  0.186456D-03 -0.183960D-02 -0.488395D-02  0.203387D-02 -0.119084D-02
     39  0.225159D-03  0.159516D-03 -0.719615D-03  0.298047D-02  0.244612D-02
               11            12            13            14            15 
     11 -0.986434D-02
     12  0.727353D-01 -0.126611D-01
     13 -0.689751D-02 -0.901588D-02  0.555742D+00
     14 -0.165939D-01  0.110552D-01  0.505683D-01  0.507821D+00
     15 -0.236668D-02 -0.196326D-01  0.345400D-01 -0.653750D-01  0.452531D+00
     16 -0.809690D-01 -0.260661D-01 -0.425148D-01  0.435014D-01 -0.217467D-01
     17  0.404823D-01 -0.105560D+00  0.444117D-01 -0.278821D-02  0.813604D-02
     18 -0.813531D-01  0.144940D-01  0.536220D-02  0.803089D-02 -0.185176D-01
     19 -0.267039D-02  0.485128D-02 -0.481599D-01 -0.248258D-02 -0.169036D-02
     20  0.329356D-02 -0.635626D-02 -0.372812D-02 -0.768432D-01  0.829064D-01
     21  0.485675D-02 -0.320865D-02 -0.995817D-02  0.976382D-01 -0.271324D+00
     22  0.539712D-03 -0.360962D-03 -0.131381D+00 -0.127582D+00  0.643182D-02
     23 -0.522315D-03  0.498052D-03 -0.125154D+00 -0.234186D+00  0.115778D-01
     24 -0.534434D-03  0.918814D-03  0.743604D-02  0.125214D-01 -0.474261D-01
     25 -0.236142D-02 -0.145725D-03 -0.279173D+00  0.530121D-01 -0.708177D-01
     26  0.304004D-02  0.304053D-02  0.554816D-01 -0.587958D-01  0.241345D-01
     27  0.301055D-02  0.281420D-02 -0.684249D-01  0.175436D-01 -0.661930D-01
     28 -0.167279D-01 -0.351382D-02 -0.101700D-02 -0.650112D-02 -0.904743D-02
     29 -0.334999D-01  0.363429D-01 -0.136556D-01  0.117826D-01 -0.300694D-02
     30 -0.272178D-01 -0.133766D-02  0.461089D-02 -0.185439D-01  0.108357D-01
     31 -0.370717D-02 -0.375555D-02  0.244755D-02  0.291669D-02 -0.246448D-02
     32 -0.100962D-01 -0.709847D-03 -0.669620D-03  0.189358D-02  0.127927D-03
     33 -0.126244D-01 -0.209382D-02  0.217311D-02 -0.292052D-02  0.548468D-02
     34  0.597164D-02  0.158768D-02  0.416936D-02 -0.637673D-02  0.430666D-02
     35 -0.981733D-02  0.836059D-02  0.363277D-02 -0.955601D-02  0.573058D-02
     36  0.144886D-01 -0.362571D-02 -0.229138D-02  0.166742D-02 -0.149791D-02
     37  0.513055D-02 -0.268413D-02 -0.225139D-03  0.194126D-02 -0.162761D-02
     38  0.214691D-02 -0.165416D-02 -0.462214D-03  0.145168D-02 -0.760482D-03
     39 -0.627209D-03 -0.284308D-02 -0.148677D-02  0.179337D-02 -0.220217D-02
               16            17            18            19            20 
     16  0.521296D+00
     17  0.225890D-01  0.728112D+00
     18  0.829186D-01 -0.359408D+00  0.381970D+00
     19  0.669077D-02  0.158389D-02  0.912266D-02  0.490642D-01
     20 -0.787550D-02 -0.134404D-02 -0.870952D-02 -0.359927D-02  0.835773D-01
     21 -0.120537D-01  0.190390D-02 -0.468784D-02  0.856926D-03 -0.949776D-01
     22  0.685041D-03 -0.104179D-02 -0.297489D-03  0.104875D-02  0.248105D-02
     23 -0.233745D-02 -0.757532D-03  0.867438D-03 -0.747680D-02 -0.971778D-02
     24  0.523779D-04  0.821657D-03  0.121349D-02  0.171363D-01  0.271206D-01
     25  0.655730D-03  0.318044D-02  0.130385D-03 -0.792907D-03 -0.648270D-03
     26  0.430316D-02 -0.706230D-02  0.101423D-02  0.127525D-01 -0.201582D-02
     27  0.434671D-02 -0.742794D-02  0.224847D-02 -0.306861D-01  0.783313D-02
     28 -0.129152D+00  0.220835D+00 -0.154684D+00  0.357830D-03 -0.173301D-02
     29  0.136545D+00 -0.470915D+00  0.339769D+00  0.337431D-03 -0.531948D-03
     30 -0.129105D+00  0.442785D+00 -0.275435D+00 -0.681449D-02  0.718595D-02
     31 -0.217342D-02 -0.231530D-02  0.379190D-02  0.505409D-03 -0.897522D-03
     32 -0.156028D-02 -0.924918D-02  0.315713D-02 -0.158789D-03  0.148424D-03
     33  0.600429D-02  0.520925D-02  0.236396D-02 -0.146621D-02  0.142993D-02
     34 -0.203913D+00 -0.144705D+00  0.641815D-01 -0.184608D-02  0.767881D-03
     35 -0.678032D-01 -0.170843D+00  0.785544D-01 -0.230543D-02  0.248327D-02
     36  0.210525D-01  0.463290D-01 -0.816320D-01 -0.165542D-03 -0.659300D-04
     37 -0.505586D-01  0.506908D-02 -0.168843D-01  0.356875D-03 -0.484828D-03
     38 -0.419949D-01  0.289624D-02 -0.789769D-02  0.440308D-03 -0.309653D-03
     39  0.210654D-01  0.496461D-02  0.563599D-02  0.591826D-03 -0.500902D-03
               21            22            23            24            25 
     21  0.298975D+00
     22 -0.950861D-03  0.140573D+00
     23 -0.484994D-03  0.137679D+00  0.257277D+00
     24 -0.642154D-03 -0.800321D-02 -0.101649D-01  0.505994D-01
     25  0.523379D-03 -0.162380D-01  0.571690D-02 -0.552309D-02  0.304712D+00
     26  0.567077D-02 -0.277246D-01  0.746356D-02 -0.829223D-02 -0.632005D-01
     27 -0.892888D-02  0.124417D-02  0.661493D-03  0.202403D-04  0.744150D-01
     28  0.356075D-02  0.247559D-03  0.618555D-03  0.552017D-04 -0.821457D-03
     29 -0.732706D-02  0.441100D-03 -0.398872D-03  0.914627D-04 -0.662287D-04
     30  0.552299D-02  0.623035D-03 -0.463244D-03 -0.107416D-02 -0.705066D-03
     31 -0.523763D-03 -0.138496D-03  0.878863D-03  0.856497D-03 -0.389764D-04
     32  0.725273D-04  0.413318D-03  0.413469D-03  0.528929D-03  0.113880D-02
     33  0.606639D-03  0.260357D-03  0.503255D-03 -0.144551D-03 -0.212960D-03
     34  0.274537D-02 -0.104116D-02  0.458404D-03 -0.120563D-03  0.330367D-03
     35  0.293542D-02 -0.625287D-04  0.186005D-02 -0.231423D-03  0.285974D-03
     36 -0.810147D-03  0.181110D-03  0.142713D-03 -0.169617D-03 -0.768927D-04
     37 -0.618567D-03 -0.690095D-04  0.173192D-03  0.510425D-04  0.103180D-03
     38 -0.408260D-03 -0.202209D-04  0.193355D-03  0.396694D-03  0.138862D-03
     39 -0.402012D-03  0.184940D-03 -0.294897D-04  0.176696D-03 -0.785176D-04
               26            27            28            29            30 
     26  0.636178D-01
     27 -0.167716D-01  0.750670D-01
     28  0.148683D-02  0.286307D-02  0.124724D+00
     29  0.173443D-02  0.142442D-02 -0.209368D+00  0.546852D+00
     30 -0.850426D-03  0.206847D-03  0.163369D+00 -0.460358D+00  0.286052D+00
     31 -0.616464D-03 -0.749693D-03  0.163758D-02 -0.537135D-03  0.207666D-02
     32 -0.103936D-02  0.352004D-04  0.181540D-02  0.383415D-02 -0.641561D-03
     33 -0.772310D-03 -0.973817D-04 -0.188299D-02  0.441809D-02 -0.572631D-02
     34 -0.513955D-03 -0.185540D-03  0.246207D-01  0.355188D-02  0.508242D-02
     35  0.131175D-03 -0.229204D-03 -0.400872D-01 -0.483055D-01  0.335190D-01
     36  0.517078D-03  0.305938D-03  0.307229D-01  0.475687D-01 -0.369601D-03
     37  0.119038D-03  0.817058D-04  0.864365D-02  0.230220D-02  0.314498D-02
     38 -0.713367D-05 -0.854605D-04  0.573044D-02 -0.230820D-03 -0.116218D-02
     39  0.233007D-03  0.296467D-03 -0.278008D-02 -0.230400D-02 -0.202825D-02
               31            32            33            34            35 
     31  0.451862D+00
     32 -0.657990D-01  0.618025D-01
     33  0.229351D-01 -0.208282D-01  0.217707D-01
     34 -0.985801D-03 -0.167186D-02  0.101312D-02  0.639338D+00
     35  0.623841D-03  0.814111D-03 -0.722186D-03  0.391534D-01  0.274099D+00
     36 -0.102693D-02 -0.858002D-03  0.146353D-02  0.896310D-01 -0.166981D+00
     37 -0.296614D-03 -0.608194D-03  0.778835D-03 -0.399371D+00  0.805688D-01
     38 -0.597091D-03 -0.671328D-04  0.723687D-03  0.128038D+00 -0.547487D-01
     39 -0.367498D-03  0.600645D-03  0.105803D-02 -0.160085D+00  0.503773D-01
               36            37            38            39 
     36  0.145561D+00
     37 -0.127723D+00  0.442321D+00
     38  0.609848D-01 -0.852289D-01  0.537985D-01
     39 -0.687222D-01  0.142652D+00 -0.523673D-01  0.642365D-01
 FormGI is forming the generalized inverse of G from B-inverse, IUseBI=4.
 Leave Link  716 at Tue Apr 12 15:11:17 2016, MaxMem=    33554432 cpu:         0.0
 (Enter /usr/local/gau/g09/l103.exe)

 GradGradGradGradGradGradGradGradGradGradGradGradGradGradGradGradGradGrad
 Berny optimization.
 Red2BG is reusing G-inverse.
 Internal  Forces:  Max     0.150569348 RMS     0.026249196
 Search for a saddle point.
 Step number   1 out of a maximum of   60
 All quantities printed in internal units (Hartrees-Bohrs-Radians)
 Swapping is turned off.
 Second derivative matrix not updated -- analytic derivatives used.
 ITU=  0
     Eigenvalues ---   -0.28230  -0.10300  -0.03706   0.00330   0.00419
     Eigenvalues ---    0.00876   0.01863   0.03968   0.04388   0.05772
     Eigenvalues ---    0.06403   0.06507   0.11267   0.11859   0.13371
     Eigenvalues ---    0.14610   0.16013   0.16213   0.19591   0.20667
     Eigenvalues ---    0.22303   0.24327   0.28455   0.31352   0.33557
     Eigenvalues ---    0.34530   0.35178   0.38952   0.44811   0.46481
     Eigenvalues ---    0.47209   0.52051   1.00046
 Eigenvectors required to have negative eigenvalues:
                          R6        A5        A6        A13       R5
   1                    0.59386  -0.35048   0.24812  -0.22811  -0.21090
                          D4        D14       A17       D2        D11
   1                    0.20859  -0.18598   0.18298   0.18144  -0.17725
 Eigenvalue     2 is  -1.03D-01 should be greater than     0.000000 Eigenvector:
                          A16       D18       A13       D11       A17
   1                   -0.54254   0.42504   0.38802  -0.29554   0.26259
                          D14       D19       D17       D15       R5
   1                   -0.25609  -0.21580  -0.17535   0.12147  -0.10799
 Eigenvalue     3 is  -3.71D-02 should be greater than     0.000000 Eigenvector:
                          D14       A6        D11       R5        R6
   1                    0.48251   0.29761   0.28406  -0.26758   0.23991
                          D1        D16       D3        A17       D18
   1                   -0.23697   0.23664  -0.23558  -0.23245   0.20381
 RFO step:  Lambda0=7.620949191D-03 Lambda=-1.04611612D-01.
 Linear search not attempted -- option 19 set.
 Maximum step size (   0.300) exceeded in Quadratic search.
    -- Step size scaled by   0.495
 Iteration  1 RMS(Cart)=  0.06732358 RMS(Int)=  0.00985909
 Iteration  2 RMS(Cart)=  0.01071555 RMS(Int)=  0.00102092
 Iteration  3 RMS(Cart)=  0.00017220 RMS(Int)=  0.00100596
 Iteration  4 RMS(Cart)=  0.00000036 RMS(Int)=  0.00100596
 ITry= 1 IFail=0 DXMaxC= 3.73D-01 DCOld= 1.00D+10 DXMaxT= 3.00D-01 DXLimC= 3.00D+00 Rises=F
 Variable       Old X    -DE/DX   Delta X   Delta X   Delta X     New X
                                 (Linear)    (Quad)   (Total)
    R1        1.91907   0.02209   0.00000   0.00744   0.00744   1.92650
    R2        2.75672   0.03576   0.00000   0.04171   0.04171   2.79843
    R3        1.91554   0.00091   0.00000   0.00174   0.00174   1.91728
    R4        2.92167  -0.00596   0.00000  -0.01276  -0.01276   2.90891
    R5        2.87127  -0.02946   0.00000  -0.02275  -0.02275   2.84852
    R6        2.41885   0.03708   0.00000  -0.00146  -0.00146   2.41739
    R7        2.06633   0.00809   0.00000   0.00399   0.00399   2.07032
    R8        2.06555   0.00013   0.00000  -0.00011  -0.00011   2.06544
    R9        2.06588   0.00289   0.00000   0.00097   0.00097   2.06685
   R10        2.27773   0.15057   0.00000   0.05452   0.05452   2.33225
   R11        2.55737   0.02799   0.00000   0.02964   0.02964   2.58700
   R12        1.83183   0.01495   0.00000   0.00645   0.00645   1.83827
    A1        1.92679   0.01485   0.00000  -0.00190  -0.00196   1.92483
    A2        1.89661  -0.00852   0.00000   0.02045   0.02035   1.91696
    A3        1.93821   0.01235   0.00000   0.00916   0.00910   1.94732
    A4        2.01211  -0.00312   0.00000  -0.00511  -0.00516   2.00695
    A5        1.88940  -0.02523   0.00000  -0.00915  -0.00923   1.88017
    A6        1.89436   0.03288   0.00000   0.03439   0.03440   1.92876
    A7        1.93007  -0.00191   0.00000  -0.03996  -0.03992   1.89015
    A8        1.94576   0.00140   0.00000   0.01248   0.01243   1.95819
    A9        1.90963   0.00133   0.00000   0.01189   0.01186   1.92149
   A10        1.90095  -0.00001   0.00000   0.00770   0.00772   1.90867
   A11        1.89033   0.00096   0.00000   0.01361   0.01368   1.90401
   A12        1.88575  -0.00178   0.00000  -0.00480  -0.00492   1.88083
   A13        1.11612  -0.00555   0.00000  -0.07238  -0.07435   1.04177
   A14        2.18471  -0.00312   0.00000   0.01553   0.01484   2.19955
   A15        1.95411   0.00871   0.00000  -0.00462  -0.00645   1.94766
   A16        1.39009   0.00745   0.00000   0.21017   0.21358   1.60366
   A17        2.32387  -0.00628   0.00000  -0.16857  -0.16604   2.15783
   A18        2.14353  -0.00553   0.00000  -0.01268  -0.01105   2.13247
   A19        1.87233   0.01239   0.00000   0.00267   0.00267   1.87500
    D1       -1.36609   0.00136   0.00000  -0.02157  -0.02157  -1.38766
    D2        0.75870   0.02277   0.00000   0.01265   0.01257   0.77127
    D3        0.73876   0.00870   0.00000   0.00893   0.00901   0.74777
    D4        2.86355   0.03010   0.00000   0.04315   0.04315   2.90670
    D5        1.04853  -0.00514   0.00000   0.00756   0.00757   1.05610
    D6       -3.11704  -0.00552   0.00000  -0.00173  -0.00175  -3.11880
    D7       -1.03222  -0.00598   0.00000   0.00786   0.00796  -1.02426
    D8       -1.07359   0.00478   0.00000  -0.00320  -0.00326  -1.07684
    D9        1.04402   0.00441   0.00000  -0.01249  -0.01257   1.03145
   D10        3.12885   0.00394   0.00000  -0.00290  -0.00286   3.12599
   D11        0.44161   0.02542   0.00000   0.23547   0.23569   0.67730
   D12       -0.49906   0.01641   0.00000  -0.00667  -0.00674  -0.50580
   D13        2.68582   0.01504   0.00000   0.03893   0.03875   2.72457
   D14        2.63728   0.02646   0.00000   0.24548   0.24572   2.88300
   D15        1.69661   0.01744   0.00000   0.00334   0.00329   1.69990
   D16       -1.40170   0.01607   0.00000   0.04894   0.04879  -1.35291
   D17        3.08349  -0.00142   0.00000   0.01809   0.01659   3.10008
   D18       -1.90339  -0.00256   0.00000  -0.11186  -0.10805  -2.01144
   D19       -0.01601  -0.00281   0.00000   0.06163   0.05932   0.04331
         Item               Value     Threshold  Converged?
 Maximum Force            0.150569     0.000450     NO 
 RMS     Force            0.026249     0.000300     NO 
 Maximum Displacement     0.372602     0.001800     NO 
 RMS     Displacement     0.074454     0.001200     NO 
 Predicted change in Energy=-3.718325D-02
 Lowest energy point so far.  Saving SCF results.
 GradGradGradGradGradGradGradGradGradGradGradGradGradGradGradGradGradGrad

 Leave Link  103 at Tue Apr 12 15:11:17 2016, MaxMem=    33554432 cpu:         0.0
 (Enter /usr/local/gau/g09/l202.exe)
                          Input orientation:                          
 ---------------------------------------------------------------------
 Center     Atomic      Atomic             Coordinates (Angstroms)
 Number     Number       Type             X           Y           Z
 ---------------------------------------------------------------------
      1          7           0       -1.360071   -1.284095   -0.398544
      2          1           0       -1.138544   -1.844400    0.423823
      3          6           0       -0.580288   -0.025216   -0.387327
      4          1           0        0.171743   -1.143277   -0.770247
      5          6           0       -1.138598    1.077412    0.530299
      6          6           0        0.836382   -0.366313   -0.001483
      7          1           0       -1.146598    0.698183    1.558107
      8          1           0       -0.542308    1.992355    0.486339
      9          1           0       -2.160648    1.330670    0.234465
     10          8           0        1.186814   -1.308175    0.714947
     11          1           0       -2.357990   -1.104472   -0.434081
     12          8           0        1.722337    0.573434   -0.455439
     13          1           0        2.606505    0.315613   -0.142289
 ---------------------------------------------------------------------
                    Distance matrix (angstroms):
                    1          2          3          4          5
     1  N    0.000000
     2  H    1.019462   0.000000
     3  C    1.480866   2.068585   0.000000
     4  H    1.582544   1.906366   1.400799   0.000000
     5  C    2.547257   2.923752   1.539330   2.887884   0.000000
     6  C    2.413377   2.503190   1.507374   1.279225   2.503533
     7  H    2.793472   2.784133   2.151448   3.248112   1.095567
     8  H    3.490971   3.883309   2.198938   3.452690   1.092984
     9  H    2.806888   3.340901   2.173152   3.545406   1.093729
    10  O    2.779760   2.404076   2.446148   1.806478   3.336565
    11  H    1.014579   1.664494   2.080192   2.552266   2.679097
    12  O    3.599290   3.847553   2.380148   2.334640   3.067674
    13  H    4.284677   4.360222   3.214321   2.907019   3.880530
                    6          7          8          9         10
     6  C    0.000000
     7  H    2.738189   0.000000
     8  H    2.775260   1.785702   0.000000
     9  H    3.452188   1.783358   1.766434   0.000000
    10  O    1.234172   3.190800   3.733045   4.289506   0.000000
    11  H    3.306967   2.947176   3.705969   2.532945   3.731942
    12  O    1.368984   3.507238   2.833531   4.015837   2.279702
    13  H    1.902153   4.138054   3.622383   4.888561   2.321005
                   11         12         13
    11  H    0.000000
    12  O    4.411903   0.000000
    13  H    5.171846   0.972773   0.000000
 Stoichiometry    C3H7NO2
 Framework group  C1[X(C3H7NO2)]
 Deg. of freedom    33
 Full point group                 C1      NOp   1
 RotChk:  IX=0 Diff= 3.70D-02
 Largest Abelian subgroup         C1      NOp   1
 Largest concise Abelian subgroup C1      NOp   1
                         Standard orientation:                         
 ---------------------------------------------------------------------
 Center     Atomic      Atomic             Coordinates (Angstroms)
 Number     Number       Type             X           Y           Z
 ---------------------------------------------------------------------
      1          7           0       -1.437624   -1.074294   -0.418521
      2          1           0       -1.223704   -1.616049    0.418165
      3          6           0       -0.657471    0.184365   -0.428553
      4          1           0        0.097518   -0.942155   -0.779529
      5          6           0       -1.223547    1.307417    0.459056
      6          6           0        0.755546   -0.148267   -0.022456
      7          1           0       -1.240915    0.951347    1.495000
      8          1           0       -0.626522    2.221025    0.399932
      9          1           0       -2.242802    1.554174    0.148454
     10          8           0        1.099164   -1.073886    0.718041
     11          1           0       -2.435112   -0.895316   -0.467033
     12          8           0        1.645911    0.780882   -0.489414
     13          1           0        2.527133    0.529978   -0.162636
 ---------------------------------------------------------------------
 Rotational constants (GHZ):      4.9979028      3.0659199      2.2878184
 Leave Link  202 at Tue Apr 12 15:11:17 2016, MaxMem=    33554432 cpu:         0.0
 (Enter /usr/local/gau/g09/l301.exe)
 Standard basis: 6-31G (6D, 7F)
 Ernie: Thresh=  0.10000D-02 Tol=  0.10000D-05 Strict=F.
 There are    68 symmetry adapted cartesian basis functions of A   symmetry.
 There are    68 symmetry adapted basis functions of A   symmetry.
    68 basis functions,   160 primitive gaussians,    68 cartesian basis functions
    24 alpha electrons       24 beta electrons
       nuclear repulsion energy       249.2463167761 Hartrees.
 IExCor=  402 DFT=T Ex+Corr=B3LYP ExCW=0 ScaHFX=  0.200000
 ScaDFX=  0.800000  0.720000  1.000000  0.810000 ScalE2=  1.000000  1.000000
 IRadAn=      0 IRanWt=     -1 IRanGd=            0 ICorTp=0 IEmpDi=  4
 NAtoms=   13 NActive=   13 NUniq=   13 SFac= 1.00D+00 NAtFMM=   60 NAOKFM=F Big=F
 Integral buffers will be    131072 words long.
 Raffenetti 2 integral format.
 Two-electron integral symmetry is turned on.
 Leave Link  301 at Tue Apr 12 15:11:17 2016, MaxMem=    33554432 cpu:         0.0
 (Enter /usr/local/gau/g09/l302.exe)
 NPDir=0 NMtPBC=     1 NCelOv=     1 NCel=       1 NClECP=     1 NCelD=      1
         NCelK=      1 NCelE2=     1 NClLst=     1 CellRange=     0.0.
 One-electron integrals computed using PRISM.
 NBasis=    68 RedAO= T EigKep=  4.43D-03  NBF=    68
 NBsUse=    68 1.00D-06 EigRej= -1.00D+00 NBFU=    68
 Precomputing XC quadrature grid using
 IXCGrd= 4 IRadAn=           0 IRanWt=          -1 IRanGd=           0 AccXCQ= 0.00D+00.
 Generated NRdTot=       0 NPtTot=           0 NUsed=           0 NTot=          32
 NSgBfM=    68    68    68    68    68 MxSgAt=    13 MxSgA2=    13.
 Leave Link  302 at Tue Apr 12 15:11:18 2016, MaxMem=    33554432 cpu:         0.2
 (Enter /usr/local/gau/g09/l303.exe)
 DipDrv:  MaxL=1.
 Leave Link  303 at Tue Apr 12 15:11:18 2016, MaxMem=    33554432 cpu:         0.0
 (Enter /usr/local/gau/g09/l401.exe)
 Initial guess from the checkpoint file:  "Ala-S-opt-freq-tsb1-6-31g.chk"
 B after Tr=     0.000000    0.000000    0.000000
         Rot=    0.999962   -0.008341   -0.001314   -0.002386 Ang=  -1.01 deg.
 Guess basis will be translated and rotated to current coordinates.
 JPrj=2 DoOrth=T DoCkMO=T.
 Generating alternative initial guess.
 ExpMin= 1.61D-01 ExpMax= 5.48D+03 ExpMxC= 8.25D+02 IAcc=1 IRadAn=         1 AccDes= 0.00D+00
 Harris functional with IExCor=  402 and IRadAn=       1 diagonalized for initial guess.
 HarFok:  IExCor=  402 AccDes= 0.00D+00 IRadAn=         1 IDoV= 1 UseB2=F ITyADJ=14
 ICtDFT=  3500011 ScaDFX=  1.000000  1.000000  1.000000  1.000000
 FoFCou: FMM=F IPFlag=           0 FMFlag=      100000 FMFlg1=           0
         NFxFlg=           0 DoJE=T BraDBF=F KetDBF=T FulRan=T
         wScrn=  0.000000 ICntrl=     500 IOpCl=  0 I1Cent=   200000004 NGrid=           0
         NMat0=    1 NMatS0=      1 NMatT0=    0 NMatD0=    1 NMtDS0=    0 NMtDT0=    0
 Petite list used in FoFCou.
 Harris En= -323.448912754818    
 Leave Link  401 at Tue Apr 12 15:11:19 2016, MaxMem=    33554432 cpu:         0.4
 (Enter /usr/local/gau/g09/l502.exe)
 Closed shell SCF:
 Using DIIS extrapolation, IDIIS=  1040.
 Integral symmetry usage will be decided dynamically.
 Keep R1 ints in memory in canonical form, NReq=3676491.
 IVT=       33364 IEndB=       33364 NGot=    33554432 MDV=    30768038
 LenX=    30768038 LenY=    30762973
 Requested convergence on RMS density matrix=1.00D-08 within 128 cycles.
 Requested convergence on MAX density matrix=1.00D-06.
 Requested convergence on             energy=1.00D-06.
 No special actions if energy rises.
 FoFCou: FMM=F IPFlag=           0 FMFlag=           0 FMFlg1=           0
         NFxFlg=           0 DoJE=F BraDBF=F KetDBF=F FulRan=T
         wScrn=  0.000000 ICntrl=     600 IOpCl=  0 I1Cent=           0 NGrid=           0
         NMat0=    1 NMatS0=   2346 NMatT0=    0 NMatD0=    1 NMtDS0=    0 NMtDT0=    0
 Symmetry not used in FoFCou.
 Integral accuracy reduced to 1.0D-05 until final iterations.

 Cycle   1  Pass 0  IDiag  1:
 E= -323.378803050104    
 DIIS: error= 7.93D-03 at cycle   1 NSaved=   1.
 NSaved= 1 IEnMin= 1 EnMin= -323.378803050104     IErMin= 1 ErrMin= 7.93D-03
 ErrMax= 7.93D-03  0.00D+00 EMaxC= 1.00D-01 BMatC= 6.53D-03 BMatP= 6.53D-03
 IDIUse=3 WtCom= 9.21D-01 WtEn= 7.93D-02
 Coeff-Com:  0.100D+01
 Coeff-En:   0.100D+01
 Coeff:      0.100D+01
 Gap=     0.575 Goal=   None    Shift=    0.000
 GapD=    0.575 DampG=2.000 DampE=1.000 DampFc=2.0000 IDamp=-1.
 RMSDP=4.82D-03 MaxDP=3.93D-02              OVMax= 8.58D-02

 Cycle   2  Pass 0  IDiag  1:
 E= -323.392323590332     Delta-E=       -0.013520540228 Rises=F Damp=F
 DIIS: error= 6.36D-03 at cycle   2 NSaved=   2.
 NSaved= 2 IEnMin= 2 EnMin= -323.392323590332     IErMin= 2 ErrMin= 6.36D-03
 ErrMax= 6.36D-03  0.00D+00 EMaxC= 1.00D-01 BMatC= 3.24D-03 BMatP= 6.53D-03
 IDIUse=3 WtCom= 9.36D-01 WtEn= 6.36D-02
 Coeff-Com:  0.370D+00 0.630D+00
 Coeff-En:   0.000D+00 0.100D+01
 Coeff:      0.347D+00 0.653D+00
 Gap=     0.083 Goal=   None    Shift=    0.000
 RMSDP=2.66D-03 MaxDP=3.48D-02 DE=-1.35D-02 OVMax= 8.61D-02

 Cycle   3  Pass 0  IDiag  1:
 E= -323.386505952018     Delta-E=        0.005817638314 Rises=F Damp=F
 DIIS: error= 9.49D-03 at cycle   3 NSaved=   3.
 NSaved= 3 IEnMin= 2 EnMin= -323.392323590332     IErMin= 2 ErrMin= 6.36D-03
 ErrMax= 9.49D-03  0.00D+00 EMaxC= 1.00D-01 BMatC= 9.68D-03 BMatP= 3.24D-03
 IDIUse=3 WtCom= 9.31D-02 WtEn= 9.07D-01
 Coeff-Com: -0.124D-01 0.644D+00 0.368D+00
 Coeff-En:   0.000D+00 0.681D+00 0.319D+00
 Coeff:     -0.115D-02 0.677D+00 0.324D+00
 Gap=     0.089 Goal=   None    Shift=    0.000
 RMSDP=1.72D-03 MaxDP=2.01D-02 DE= 5.82D-03 OVMax= 5.88D-02

 Cycle   4  Pass 0  IDiag  1:
 E= -323.395124009593     Delta-E=       -0.008618057575 Rises=F Damp=F
 DIIS: error= 1.96D-03 at cycle   4 NSaved=   4.
 NSaved= 4 IEnMin= 4 EnMin= -323.395124009593     IErMin= 4 ErrMin= 1.96D-03
 ErrMax= 1.96D-03  0.00D+00 EMaxC= 1.00D-01 BMatC= 4.11D-04 BMatP= 3.24D-03
 IDIUse=3 WtCom= 9.80D-01 WtEn= 1.96D-02
 Coeff-Com: -0.237D-01 0.379D+00 0.157D+00 0.488D+00
 Coeff-En:   0.000D+00 0.369D-01 0.000D+00 0.963D+00
 Coeff:     -0.232D-01 0.372D+00 0.154D+00 0.497D+00
 Gap=     0.089 Goal=   None    Shift=    0.000
 RMSDP=4.96D-04 MaxDP=5.09D-03 DE=-8.62D-03 OVMax= 1.45D-02

 Cycle   5  Pass 0  IDiag  1:
 E= -323.395459807624     Delta-E=       -0.000335798032 Rises=F Damp=F
 DIIS: error= 6.30D-04 at cycle   5 NSaved=   5.
 NSaved= 5 IEnMin= 5 EnMin= -323.395459807624     IErMin= 5 ErrMin= 6.30D-04
 ErrMax= 6.30D-04  0.00D+00 EMaxC= 1.00D-01 BMatC= 5.21D-05 BMatP= 4.11D-04
 IDIUse=3 WtCom= 9.94D-01 WtEn= 6.30D-03
 Coeff-Com: -0.121D-01 0.865D-01-0.674D-02 0.305D+00 0.627D+00
 Coeff-En:   0.000D+00 0.000D+00 0.000D+00 0.234D-01 0.977D+00
 Coeff:     -0.120D-01 0.860D-01-0.670D-02 0.303D+00 0.629D+00
 Gap=     0.089 Goal=   None    Shift=    0.000
 RMSDP=1.20D-04 MaxDP=1.40D-03 DE=-3.36D-04 OVMax= 2.78D-03

[...]
    R9        2.06630   0.00011   0.00000  -0.00008  -0.00008   2.06623
   R10        2.67698  -0.00097   0.00000  -0.00310  -0.00310   2.67388
   R11        2.75049   0.00022   0.00000   0.00076   0.00076   2.75125
   R12        1.85261  -0.00003   0.00000  -0.00012  -0.00012   1.85250
    A1        1.51144   0.00123   0.00000   0.00586   0.00582   1.51726
    A2        2.76144  -0.00106   0.00000  -0.00769  -0.00773   2.75371
    A3        2.01026  -0.00018   0.00000   0.00166   0.00162   2.01188
    A4        2.21962   0.00025   0.00000   0.00830   0.00830   2.22792
    A5        2.03340   0.00118   0.00000  -0.00559  -0.00559   2.02782
    A6        2.03011  -0.00143   0.00000  -0.00273  -0.00273   2.02738
    A7        1.91980   0.00024   0.00000   0.00275   0.00274   1.92254
    A8        1.94837  -0.00043   0.00000  -0.00631  -0.00631   1.94207
    A9        1.92103   0.00032   0.00000   0.00364   0.00364   1.92467
   A10        1.88519   0.00014   0.00000  -0.00031  -0.00031   1.88488
   A11        1.88293  -0.00030   0.00000   0.00020   0.00019   1.88312
   A12        1.90499   0.00003   0.00000   0.00014   0.00015   1.90513
   A13        1.93625   0.00025   0.00000   0.00076   0.00076   1.93701
   A14        1.95469   0.00041   0.00000  -0.00368  -0.00369   1.95100
   A15        1.88116  -0.00003   0.00000   0.00466   0.00466   1.88582
   A16        1.91302  -0.00005   0.00000  -0.00020  -0.00020   1.91281
   A17        1.83654  -0.00017   0.00000  -0.00364  -0.00364   1.83289
   A18        1.93858  -0.00045   0.00000   0.00225   0.00225   1.94083
   A19        1.87248  -0.00003   0.00000   0.00012   0.00012   1.87260
    D1        3.11123   0.00052   0.00000   0.01643   0.01643   3.12766
    D2       -0.04211   0.00054   0.00000   0.01503   0.01503  -0.02708
    D3       -0.03729   0.00047   0.00000   0.00657   0.00657  -0.03072
    D4        3.09256   0.00049   0.00000   0.00517   0.00517   3.09773
    D5       -1.72537  -0.00042   0.00000   0.03420   0.03421  -1.69116
    D6        0.36712  -0.00036   0.00000   0.03156   0.03156   0.39868
    D7        2.48540  -0.00039   0.00000   0.03002   0.03001   2.51541
    D8        1.42795  -0.00045   0.00000   0.03561   0.03562   1.46357
    D9       -2.76275  -0.00039   0.00000   0.03297   0.03297  -2.72978
   D10       -0.64446  -0.00042   0.00000   0.03143   0.03143  -0.61304
   D11        2.23514   0.00007   0.00000  -0.01775  -0.01776   2.21739
   D12        0.09144  -0.00034   0.00000  -0.01540  -0.01541   0.07603
   D13       -2.04597  -0.00001   0.00000  -0.01905  -0.01905  -2.06503
   D14       -0.91689   0.00009   0.00000  -0.01891  -0.01891  -0.93580
   D15       -3.06059  -0.00031   0.00000  -0.01656  -0.01656  -3.07716
   D16        1.08518   0.00001   0.00000  -0.02021  -0.02021   1.06497
   D17        1.70079  -0.00010   0.00000  -0.00022  -0.00021   1.70058
   D18       -2.51520   0.00009   0.00000   0.00104   0.00104  -2.51417
   D19       -0.44650  -0.00031   0.00000  -0.00017  -0.00018  -0.44668
         Item               Value     Threshold  Converged?
 Maximum Force            0.003924     0.000450     NO 
 RMS     Force            0.000786     0.000300     NO 
 Maximum Displacement     0.059468     0.001800     NO 
 RMS     Displacement     0.018369     0.001200     NO 
 Predicted change in Energy=-6.105400D-05
 Optimization stopped.
    -- Number of steps exceeded,  NStep=  60
    -- Flag reset to prevent archiving.
                           ----------------------------
                           ! Non-Optimized Parameters !
                           ! (Angstroms and Degrees)  !
 --------------------------                            --------------------------
 ! Name  Definition              Value          Derivative Info.                !
 --------------------------------------------------------------------------------
 ! R1    R(1,2)                  2.0347         -DE/DX =   -0.0039              !
 ! R2    R(1,3)                  1.2849         -DE/DX =    0.0016              !
 ! R3    R(1,11)                 1.0264         -DE/DX =   -0.0002              !
 ! R4    R(3,5)                  1.5041         -DE/DX =    0.0003              !
 ! R5    R(3,6)                  1.5314         -DE/DX =    0.0008              !
 ! R6    R(4,6)                  1.0933         -DE/DX =   -0.0013              !
 ! R7    R(5,7)                  1.0988         -DE/DX =    0.0                 !
 ! R8    R(5,8)                  1.0947         -DE/DX =   -0.0001              !
 ! R9    R(5,9)                  1.0934         -DE/DX =    0.0001              !
 ! R10   R(6,10)                 1.415          -DE/DX =   -0.001               !
 ! R11   R(6,12)                 1.4559         -DE/DX =    0.0002              !
 ! R12   R(12,13)                0.9803         -DE/DX =    0.0                 !
 ! A1    A(2,1,3)               86.9326         -DE/DX =    0.0012              !
 ! A2    A(2,1,11)             157.7759         -DE/DX =   -0.0011              !
 ! A3    A(3,1,11)             115.2723         -DE/DX =   -0.0002              !
 ! A4    A(1,3,5)              127.6504         -DE/DX =    0.0003              !
 ! A5    A(1,3,6)              116.1853         -DE/DX =    0.0012              !
 ! A6    A(5,3,6)              116.1604         -DE/DX =   -0.0014              !
 ! A7    A(3,5,7)              110.1535         -DE/DX =    0.0002              !
 ! A8    A(3,5,8)              111.2723         -DE/DX =   -0.0004              !
 ! A9    A(3,5,9)              110.2757         -DE/DX =    0.0003              !
 ! A10   A(7,5,8)              107.9959         -DE/DX =    0.0001              !
 ! A11   A(7,5,9)              107.895          -DE/DX =   -0.0003              !
 ! A12   A(8,5,9)              109.1561         -DE/DX =    0.0                 !
 ! A13   A(3,6,4)              110.9826         -DE/DX =    0.0002              !
 ! A14   A(3,6,10)             111.7842         -DE/DX =    0.0004              !
 ! A15   A(3,6,12)             108.0493         -DE/DX =    0.0                 !
 ! A16   A(4,6,10)             109.5962         -DE/DX =   -0.0001              !
 ! A17   A(4,6,12)             105.017          -DE/DX =   -0.0002              !
 ! A18   A(10,6,12)            111.2015         -DE/DX =   -0.0004              !
 ! A19   A(6,12,13)            107.2923         -DE/DX =    0.0                 !
 ! D1    D(2,1,3,5)            179.2017         -DE/DX =    0.0005              !
 ! D2    D(2,1,3,6)             -1.5514         -DE/DX =    0.0005              !
 ! D3    D(11,1,3,5)            -1.7599         -DE/DX =    0.0005              !
 ! D4    D(11,1,3,6)           177.4869         -DE/DX =    0.0005              !
 ! D5    D(1,3,5,7)            -96.8964         -DE/DX =   -0.0004              !
 ! D6    D(1,3,5,8)             22.8424         -DE/DX =   -0.0004              !
 ! D7    D(1,3,5,9)            144.1227         -DE/DX =   -0.0004              !
 ! D8    D(6,3,5,7)             83.8566         -DE/DX =   -0.0005              !
 ! D9    D(6,3,5,8)           -156.4046         -DE/DX =   -0.0004              !
 ! D10   D(6,3,5,9)            -35.1244         -DE/DX =   -0.0004              !
 ! D11   D(1,3,6,4)            127.047          -DE/DX =    0.0001              !
 ! D12   D(1,3,6,10)             4.3562         -DE/DX =   -0.0003              !
 ! D13   D(1,3,6,12)          -118.3174         -DE/DX =    0.0                 !
 ! D14   D(5,3,6,4)            -53.6174         -DE/DX =    0.0001              !
 ! D15   D(5,3,6,10)          -176.3082         -DE/DX =   -0.0003              !
 ! D16   D(5,3,6,12)            61.0183         -DE/DX =    0.0                 !
 ! D17   D(3,6,12,13)           97.436          -DE/DX =   -0.0001              !
 ! D18   D(4,6,12,13)         -144.0512         -DE/DX =    0.0001              !
 ! D19   D(10,6,12,13)         -25.5929         -DE/DX =   -0.0003              !
 --------------------------------------------------------------------------------
 Lowest energy point so far.  Saving SCF results.
 GradGradGradGradGradGradGradGradGradGradGradGradGradGradGradGradGradGrad

 Largest change from initial coordinates is atom    7       1.735 Angstoms.
 Leave Link  103 at Tue Apr 12 15:38:15 2016, MaxMem=    33554432 cpu:         0.0
 (Enter /usr/local/gau/g09/l202.exe)
                          Input orientation:                          
 ---------------------------------------------------------------------
 Center     Atomic      Atomic             Coordinates (Angstroms)
 Number     Number       Type             X           Y           Z
 ---------------------------------------------------------------------
      1          7           0       -1.116140   -1.160421    1.070164
      2          1           0        0.236699   -2.323619    0.053313
      3          6           0       -0.728396   -0.190857    0.323089
      4          1           0        0.120781   -0.191754   -1.681989
      5          6           0       -1.248476    1.220056    0.322686
      6          6           0        0.396867   -0.499415   -0.667065
      7          1           0       -1.975282    1.352378   -0.490709
      8          1           0       -1.747066    1.466736    1.265714
      9          1           0       -0.427195    1.922602    0.156730
     10          8           0        0.744036   -1.872812   -0.664531
     11          1           0       -1.839877   -0.919904    1.757267
     12          8           0        1.539639    0.329890   -0.313800
     13          1           0        2.143147   -0.221162    0.227704
 ---------------------------------------------------------------------
                    Distance matrix (angstroms):
                    1          2          3          4          5
     1  N    0.000000
     2  H    2.053580   0.000000
     3  C    1.283948   2.356451   0.000000
     4  H    3.169012   2.751283   2.177485   0.000000
     5  C    2.498581   3.851745   1.503715   2.808344   0.000000
     6  C    2.396683   1.967821   1.530304   1.095878   2.577468
     7  H    3.080359   4.324555   2.144427   2.863036   1.098803
     8  H    2.708922   4.446575   2.161907   3.863728   1.094872
     9  H    3.288470   4.299051   2.141286   2.855112   1.093441
    10  O    2.641387   0.987886   2.443854   2.061461   3.809270
    11  H    1.026525   3.030848   1.955445   4.025278   2.643333
    12  O    3.345078   2.978848   2.412631   2.038924   2.995179
    13  H    3.494982   2.843464   2.873287   2.781682   3.686359
                    6          7          8          9         10
     6  C    0.000000
     7  H    3.014520   0.000000
     8  H    3.492540   1.774875   0.000000
     9  H    2.687728   1.772260   1.783176   0.000000
    10  O    1.416599   4.222175   4.591733   4.056035   0.000000
    11  H    3.325240   3.199218   2.438501   3.554888   3.667389
    12  O    1.455497   3.664895   3.819649   2.574212   2.368099
    13  H    1.981800   4.466946   4.365802   3.347749   2.341270
                   11         12         13
    11  H    0.000000
    12  O    4.156012   0.000000
    13  H    4.323458   0.980360   0.000000
 Stoichiometry    C3H7NO2
 Framework group  C1[X(C3H7NO2)]
 Deg. of freedom    33
 Full point group                 C1      NOp   1
 RotChk:  IX=1 Diff= 2.15D-15
 Largest Abelian subgroup         C1      NOp   1
 Largest concise Abelian subgroup C1      NOp   1
                         Standard orientation:                         
 ---------------------------------------------------------------------
 Center     Atomic      Atomic             Coordinates (Angstroms)
 Number     Number       Type             X           Y           Z
 ---------------------------------------------------------------------
      1          7           0       -0.814328   -1.449808    0.390490
      2          1           0        1.208563   -1.601152    0.070810
      3          6           0       -0.714796   -0.244197   -0.039763
      4          1           0        0.712782    0.663561   -1.410688
      5          6           0       -1.826856    0.752643   -0.215240
      6          6           0        0.691885    0.238077   -0.400997
      7          1           0       -2.144256    0.780251   -1.266841
      8          1           0       -2.698929    0.496091    0.395017
      9          1           0       -1.480241    1.753247    0.057269
     10          8           0        1.650331   -0.800431   -0.302828
     11          1           0       -1.759499   -1.737422    0.669208
     12          8           0        1.024565    1.342832    0.486307
     13          1           0        1.561311    0.975728    1.219959
 ---------------------------------------------------------------------
 Rotational constants (GHZ):      4.8978055      3.1829275      2.1895100
 Leave Link  202 at Tue Apr 12 15:38:15 2016, MaxMem=    33554432 cpu:         0.0
 (Enter /usr/local/gau/g09/l601.exe)
 Copying SCF densities to generalized density rwf, IOpCl= 0 IROHF=0.

 **********************************************************************

            Population analysis using the SCF density.

 **********************************************************************

 Orbital symmetries:
       Occupied  (A) (A) (A) (A) (A) (A) (A) (A) (A) (A) (A) (A)
                 (A) (A) (A) (A) (A) (A) (A) (A) (A) (A) (A) (A)
       Virtual   (A) (A) (A) (A) (A) (A) (A) (A) (A) (A) (A) (A)
                 (A) (A) (A) (A) (A) (A) (A) (A) (A) (A) (A) (A)
                 (A) (A) (A) (A) (A) (A) (A) (A) (A) (A) (A) (A)
                 (A) (A) (A) (A) (A) (A) (A) (A)
 The electronic state is 1-A.
 Alpha  occ. eigenvalues --  -19.14482 -19.14448 -14.34400 -10.29155 -10.25927
 Alpha  occ. eigenvalues --  -10.19811  -1.06378  -0.99412  -0.93452  -0.75979
 Alpha  occ. eigenvalues --   -0.69278  -0.59643  -0.53266  -0.48813  -0.47776
 Alpha  occ. eigenvalues --   -0.47413  -0.43434  -0.41937  -0.36267  -0.34166
 Alpha  occ. eigenvalues --   -0.32452  -0.29877  -0.28365  -0.26327
 Alpha virt. eigenvalues --   -0.02395   0.07406   0.09165   0.11041   0.12774
 Alpha virt. eigenvalues --    0.14613   0.15822   0.16423   0.21490   0.22495
 Alpha virt. eigenvalues --    0.23944   0.29168   0.40131   0.53013   0.54644
 Alpha virt. eigenvalues --    0.56948   0.57296   0.61588   0.68027   0.68820
 Alpha virt. eigenvalues --    0.72909   0.75012   0.76903   0.77970   0.80527
 Alpha virt. eigenvalues --    0.82835   0.85683   0.89194   0.91335   0.93403
 Alpha virt. eigenvalues --    0.94408   0.95825   0.99136   1.04872   1.09207
 Alpha virt. eigenvalues --    1.12952   1.16503   1.19737   1.30093   1.33620
 Alpha virt. eigenvalues --    1.45623   1.48776   1.75746   1.97256
          Condensed to atoms (all electrons):
               1          2          3          4          5          6
     1  N    6.831016   0.047281   0.551492   0.002898  -0.111271  -0.075492
     2  H    0.047281   0.377976   0.004047   0.005791   0.002373  -0.062381
     3  C    0.551492   0.004047   5.201010  -0.085175   0.253535   0.105892
     4  H    0.002898   0.005791  -0.085175   0.628159   0.000330   0.389421
     5  C   -0.111271   0.002373   0.253535   0.000330   5.363503  -0.102244
     6  C   -0.075492  -0.062381   0.105892   0.389421  -0.102244   5.059842
     7  H    0.000264  -0.000044  -0.031998   0.001684   0.358357   0.001176
     8  H   -0.002927  -0.000016  -0.029784  -0.000052   0.362119   0.003489
     9  H    0.003494  -0.000086  -0.026931   0.000131   0.352178   0.001012
    10  O   -0.021864   0.235276  -0.031659  -0.048435   0.003552   0.233938
    11  H    0.301125  -0.002035  -0.065101  -0.000309  -0.017930   0.011004
    12  O   -0.000428   0.002936  -0.059878  -0.064685  -0.002061   0.195845
    13  H    0.000999   0.000891  -0.001224   0.008007  -0.000263  -0.023778
               7          8          9         10         11         12
     1  N    0.000264  -0.002927   0.003494  -0.021864   0.301125  -0.000428
     2  H   -0.000044  -0.000016  -0.000086   0.235276  -0.002035   0.002936
     3  C   -0.031998  -0.029784  -0.026931  -0.031659  -0.065101  -0.059878
     4  H    0.001684  -0.000052   0.000131  -0.048435  -0.000309  -0.064685
     5  C    0.358357   0.362119   0.352178   0.003552  -0.017930  -0.002061
     6  C    0.001176   0.003489   0.001012   0.233938   0.011004   0.195845
     7  H    0.548916  -0.026291  -0.024088  -0.000002   0.000330   0.000221
     8  H   -0.026291   0.563768  -0.024688  -0.000063   0.005597  -0.000156
     9  H   -0.024088  -0.024688   0.510705   0.000180   0.000120   0.010782
    10  O   -0.000002  -0.000063   0.000180   8.300646   0.000372  -0.072344
    11  H    0.000330   0.005597   0.000120   0.000372   0.498444  -0.000259
    12  O    0.000221  -0.000156   0.010782  -0.072344  -0.000259   8.348692
    13  H   -0.000002   0.000014  -0.000282   0.007764  -0.000013   0.223852
              13
     1  N    0.000999
     2  H    0.000891
     3  C   -0.001224
     4  H    0.008007
     5  C   -0.000263
     6  C   -0.023778
     7  H   -0.000002
     8  H    0.000014
     9  H   -0.000282
    10  O    0.007764
    11  H   -0.000013
    12  O    0.223852
    13  H    0.420262
 Mulliken charges:
               1
     1  N   -0.526586
     2  H    0.387991
     3  C    0.215773
     4  H    0.162235
     5  C   -0.462179
     6  C    0.262277
     7  H    0.171477
     8  H    0.148991
     9  H    0.197472
    10  O   -0.607363
    11  H    0.268655
    12  O   -0.582517
    13  H    0.363774
 Sum of Mulliken charges =   0.00000
 Mulliken charges with hydrogens summed into heavy atoms:
               1
     1  N   -0.257931
     3  C    0.215773
     5  C    0.055761
     6  C    0.424512
    10  O   -0.219372
    12  O   -0.218743
 Electronic spatial extent (au):  <R**2>=            588.8365
 Charge=              0.0000 electrons
 Dipole moment (field-independent basis, Debye):
    X=             -3.2144    Y=             -0.2983    Z=              0.6172  Tot=              3.2867
 Quadrupole moment (field-independent basis, Debye-Ang):
   XX=            -35.0526   YY=            -39.8995   ZZ=            -33.6935
   XY=              0.5551   XZ=              2.6161   YZ=             -1.2947
 Traceless Quadrupole moment (field-independent basis, Debye-Ang):
   XX=              1.1626   YY=             -3.6843   ZZ=              2.5217
   XY=              0.5551   XZ=              2.6161   YZ=             -1.2947
 Octapole moment (field-independent basis, Debye-Ang**2):
  XXX=             -9.3195  YYY=             -6.7967  ZZZ=              3.1952  XYY=             -1.7083
  XXY=             -1.4478  XXZ=              9.6171  XZZ=              4.9775  YZZ=              3.2911
  YYZ=              0.6087  XYZ=              1.7356
 Hexadecapole moment (field-independent basis, Debye-Ang**3):
 XXXX=           -399.6954 YYYY=           -256.2473 ZZZZ=            -69.7998 XXXY=             21.4069
 XXXZ=              8.5266 YYYX=             -8.0205 YYYZ=             -0.0396 ZZZX=              7.4612
 ZZZY=              3.7214 XXYY=            -97.7114 XXZZ=            -70.1020 YYZZ=            -52.8750
 XXYZ=             -3.6591 YYXZ=             -0.6602 ZZXY=              6.6827
 N-N= 2.467486576289D+02 E-N=-1.251299064771D+03  KE= 3.218238184681D+02
 No NMR shielding tensors so no spin-rotation constants.
 Leave Link  601 at Tue Apr 12 15:38:15 2016, MaxMem=    33554432 cpu:         0.1
 (Enter /usr/local/gau/g09/l9999.exe)


 A SOLDIER'S LIFE IS A LIFE OF HONOR, BUT A DOG WOULD NOT LEAD IT.
 -- PRINCE RUPERT, FOUNDER OF THE HUDSON'S BAY COMPANY
 Error termination request processed by link 9999.
 Error termination via Lnk1e in /usr/local/gau/g09/l9999.exe at Tue Apr 12 15:38:15 2016.
 Job cpu time:       0 days  0 hours 15 minutes 38.4 seconds.
 File lengths (MBytes):  RWF=     12 Int=      0 D2E=      0 Chk=      2 Scr=      1
