 Entering Link 1 = c:\G03W04\l1.exe PID=      5488.
  
 Copyright (c) 1988,1990,1992,1993,1995,1998,2003,2004,2007, Gaussian, Inc.
                  All Rights Reserved.
  
 This is the Gaussian(R) 03 program.  It is based on the
 the Gaussian(R) 98 system (copyright 1998, Gaussian, Inc.),
 the Gaussian(R) 94 system (copyright 1995, Gaussian, Inc.),
 the Gaussian 92(TM) system (copyright 1992, Gaussian, Inc.),
 the Gaussian 90(TM) system (copyright 1990, Gaussian, Inc.),
 the Gaussian 88(TM) system (copyright 1988, Gaussian, Inc.),
 the Gaussian 86(TM) system (copyright 1986, Carnegie Mellon
 University), and the Gaussian 82(TM) system (copyright 1983,
 Carnegie Mellon University). Gaussian is a federally registered
 trademark of Gaussian, Inc.
  
 This software contains proprietary and confidential information,
 including trade secrets, belonging to Gaussian, Inc.
  
 This software is provided under written license and may be
 used, copied, transmitted, or stored only in accord with that
 written license.
  
 The following legend is applicable only to US Government
 contracts under FAR:
  
                    RESTRICTED RIGHTS LEGEND
  
 Use, reproduction and disclosure by the US Government is
 subject to restrictions as set forth in subparagraphs (a)
 and (c) of the Commercial Computer Software - Restricted
 Rights clause in FAR 52.227-19.
  
 Gaussian, Inc.
 340 Quinnipiac St., Bldg. 40, Wallingford CT 06492
  
  
 ---------------------------------------------------------------
 Warning -- This program may not be used in any manner that
 competes with the business of Gaussian, Inc. or will provide
 assistance to any competitor of Gaussian, Inc.  The licensee
 of this program is prohibited from giving any competitor of
 Gaussian, Inc. access to this program.  By using this program,
 the user acknowledges that Gaussian, Inc. is engaged in the
 business of creating and licensing software in the field of
 computational chemistry and represents and warrants to the
 licensee that it is not a competitor of Gaussian, Inc. and that
 it will not use this program in any manner prohibited above.
 ---------------------------------------------------------------
  

 Cite this work as:
 Gaussian 03, Revision E.01,
 M. J. Frisch, G. W. Trucks, H. B. Schlegel, G. E. Scuseria, 
 M. A. Robb, J. R. Cheeseman, J. A. Montgomery, Jr., T. Vreven, 
 K. N. Kudin, J. C. Burant, J. M. Millam, S. S. Iyengar, J. Tomasi, 
 V. Barone, B. Mennucci, M. Cossi, G. Scalmani, N. Rega, 
 G. A. Petersson, H. Nakatsuji, M. Hada, M. Ehara, K. Toyota, 
 R. Fukuda, J. Hasegawa, M. Ishida, T. Nakajima, Y. Honda, O. Kitao, 
 H. Nakai, M. Klene, X. Li, J. E. Knox, H. P. Hratchian, J. B. Cross, 
 V. Bakken, C. Adamo, J. Jaramillo, R. Gomperts, R. E. Stratmann, 
 O. Yazyev, A. J. Austin, R. Cammi, C. Pomelli, J. W. Ochterski, 
 P. Y. Ayala, K. Morokuma, G. A. Voth, P. Salvador, J. J. Dannenberg, 
 V. G. Zakrzewski, S. Dapprich, A. D. Daniels, M. C. Strain, 
 O. Farkas, D. K. Malick, A. D. Rabuck, K. Raghavachari, 
 J. B. Foresman, J. V. Ortiz, Q. Cui, A. G. Baboul, S. Clifford, 
 J. Cioslowski, B. B. Stefanov, G. Liu, A. Liashenko, P. Piskorz, 
 I. Komaromi, R. L. Martin, D. J. Fox, T. Keith, M. A. Al-Laham, 
 C. Y. Peng, A. Nanayakkara, M. Challacombe, P. M. W. Gill, 
 B. Johnson, W. Chen, M. W. Wong, C. Gonzalez, and J. A. Pople, 
 Gaussian, Inc., Wallingford CT, 2004.
 
 ******************************************
 Gaussian 03:  IA32W-G03RevE.01 11-Sep-2007
                01-Apr-2016 
 ******************************************
 %chk=E:\YangJ\Amiano\phe\ts1\s\Phe-S-opt-freq-ts1-6-311++gdp.chk
 -------------------------------------------------------
 # opt=(calcfc,ts) freq rb3lyp/6-311++g(d,p) iop(1/11=1)
 -------------------------------------------------------
 1/5=1,10=4,11=1,14=-1,18=20,26=3,38=1/1,3;
 2/9=110,17=6,18=5,40=1/2;
 3/5=4,6=6,7=1111,11=2,16=1,25=1,30=1,74=-5/1,2,3;
 4/7=1/1;
 5/5=2,38=5/2;
 8/6=4,10=90,11=11/1;
 11/6=1,8=1,9=11,15=111,16=1/1,2,10;
 10/6=1,7=6/2;
 6/7=2,8=2,9=2,10=2,28=1/1;
 7/10=1,18=20,25=1/1,2,3,16;
 1/5=1,10=4,11=1,14=-1,18=20/3(3);
 2/9=110/2;
 6/7=2,8=2,9=2,10=2,19=2,28=1/1;
 99//99;
 2/9=110/2;
 3/5=4,6=6,7=1111,11=2,16=1,25=1,30=1,74=-5/1,2,3;
 4/5=5,7=1,16=3/1;
 5/5=2,38=5/2;
 7//1,2,3,16;
 1/5=1,11=1,14=-1,18=20/3(-5);
 2/9=110/2;
 6/7=2,8=2,9=2,10=2,19=2,28=1/1;
 99/9=1/99;
 -----------------------------
 Phe-S-opt-freq-ts1-6-311++gdp
 -----------------------------
 Symbolic Z-matrix:
 Charge =  0 Multiplicity = 1
 N                    -2.85741  -1.48816  -0.16147 
 H                    -3.23902  -1.23052  -1.06414 
 C                    -1.61759  -0.80287   0.20779 
 H                    -1.30549  -1.16685   1.18997 
 C                    -0.50864  -1.0967   -0.8295 
 C                    -1.87529   0.67842   0.33515 
 H                    -0.46982  -2.1858   -0.93322 
 H                    -0.82477  -0.68261  -1.79482 
 C                     0.85093  -0.54473  -0.4436 
 O                    -2.03221   1.51197  -0.66582 
 C                     1.2604    0.73362  -0.86163 
 C                     1.72046  -1.30131   0.36166 
 H                     0.59544   1.32903  -1.47965 
 C                     2.50764   1.24215  -0.48164 
 C                     2.96695  -0.79457   0.74256 
 H                     1.4208   -2.29532   0.68406 
 H                     2.81001   2.23028  -0.81438 
 C                     3.3639    0.48035   0.32141 
 H                     3.62771  -1.39366   1.36151 
 H                     4.33208   0.87434   0.61395 
 H                    -3.55533  -1.56193   0.56777 
 O                    -2.10846   1.32553   1.44498 
 H                    -2.27696   2.23403   0.45286 
 

 GradGradGradGradGradGradGradGradGradGradGradGradGradGradGradGradGradGrad
 Berny optimization.
 Initialization pass.
                           ----------------------------
                           !    Initial Parameters    !
                           ! (Angstroms and Degrees)  !
 --------------------------                            --------------------------
 ! Name  Definition              Value          Derivative Info.                !
 --------------------------------------------------------------------------------
 ! R1    R(1,2)                  1.0133         calculate D2E/DX2 analytically  !
 ! R2    R(1,3)                  1.4639         calculate D2E/DX2 analytically  !
 ! R3    R(1,21)                 1.0121         calculate D2E/DX2 analytically  !
 ! R4    R(3,4)                  1.093          calculate D2E/DX2 analytically  !
 ! R5    R(3,5)                  1.5466         calculate D2E/DX2 analytically  !
 ! R6    R(3,6)                  1.5089         calculate D2E/DX2 analytically  !
 ! R7    R(5,7)                  1.0947         calculate D2E/DX2 analytically  !
 ! R8    R(5,8)                  1.0969         calculate D2E/DX2 analytically  !
 ! R9    R(5,9)                  1.5172         calculate D2E/DX2 analytically  !
 ! R10   R(6,10)                 1.312          calculate D2E/DX2 analytically  !
 ! R11   R(6,22)                 1.3057         calculate D2E/DX2 analytically  !
 ! R12   R(6,23)                 1.6109         calculate D2E/DX2 analytically  !
 ! R13   R(9,11)                 1.4059         calculate D2E/DX2 analytically  !
 ! R14   R(9,12)                 1.406          calculate D2E/DX2 analytically  !
 ! R15   R(10,23)                1.3538         calculate D2E/DX2 analytically  !
 ! R16   R(11,13)                1.0856         calculate D2E/DX2 analytically  !
 ! R17   R(11,14)                1.3995         calculate D2E/DX2 analytically  !
 ! R18   R(12,15)                1.3984         calculate D2E/DX2 analytically  !
 ! R19   R(12,16)                1.0871         calculate D2E/DX2 analytically  !
 ! R20   R(14,17)                1.0856         calculate D2E/DX2 analytically  !
 ! R21   R(14,18)                1.3994         calculate D2E/DX2 analytically  !
 ! R22   R(15,18)                1.4001         calculate D2E/DX2 analytically  !
 ! R23   R(15,19)                1.0856         calculate D2E/DX2 analytically  !
 ! R24   R(18,20)                1.0854         calculate D2E/DX2 analytically  !
 ! R25   R(22,23)                1.3558         calculate D2E/DX2 analytically  !
 ! A1    A(2,1,3)              115.1256         calculate D2E/DX2 analytically  !
 ! A2    A(2,1,21)             113.6211         calculate D2E/DX2 analytically  !
 ! A3    A(3,1,21)             115.8738         calculate D2E/DX2 analytically  !
 ! A4    A(1,3,4)              108.2167         calculate D2E/DX2 analytically  !
 ! A5    A(1,3,5)              110.4344         calculate D2E/DX2 analytically  !
 ! A6    A(1,3,6)              109.6451         calculate D2E/DX2 analytically  !
 ! A7    A(4,3,5)              109.5532         calculate D2E/DX2 analytically  !
 ! A8    A(4,3,6)              107.4483         calculate D2E/DX2 analytically  !
 ! A9    A(5,3,6)              111.4424         calculate D2E/DX2 analytically  !
 ! A10   A(3,5,7)              106.1395         calculate D2E/DX2 analytically  !
 ! A11   A(3,5,8)              108.1704         calculate D2E/DX2 analytically  !
 ! A12   A(3,5,9)              113.7531         calculate D2E/DX2 analytically  !
 ! A13   A(7,5,8)              107.6024         calculate D2E/DX2 analytically  !
 ! A14   A(7,5,9)              110.7478         calculate D2E/DX2 analytically  !
 ! A15   A(8,5,9)              110.1663         calculate D2E/DX2 analytically  !
 ! A16   A(3,6,10)             125.4308         calculate D2E/DX2 analytically  !
 ! A17   A(3,6,22)             126.0694         calculate D2E/DX2 analytically  !
 ! A18   A(10,6,22)            108.1956         calculate D2E/DX2 analytically  !
 ! A19   A(5,9,11)             121.0737         calculate D2E/DX2 analytically  !
 ! A20   A(5,9,12)             120.2693         calculate D2E/DX2 analytically  !
 ! A21   A(11,9,12)            118.6498         calculate D2E/DX2 analytically  !
 ! A22   A(9,11,13)            119.3114         calculate D2E/DX2 analytically  !
 ! A23   A(9,11,14)            120.6118         calculate D2E/DX2 analytically  !
 ! A24   A(13,11,14)           120.0756         calculate D2E/DX2 analytically  !
 ! A25   A(9,12,15)            120.8132         calculate D2E/DX2 analytically  !
 ! A26   A(9,12,16)            119.4327         calculate D2E/DX2 analytically  !
 ! A27   A(15,12,16)           119.7523         calculate D2E/DX2 analytically  !
 ! A28   A(11,14,17)           119.7188         calculate D2E/DX2 analytically  !
 ! A29   A(11,14,18)           120.2187         calculate D2E/DX2 analytically  !
 ! A30   A(17,14,18)           120.0624         calculate D2E/DX2 analytically  !
 ! A31   A(12,15,18)           120.0485         calculate D2E/DX2 analytically  !
 ! A32   A(12,15,19)           119.8569         calculate D2E/DX2 analytically  !
 ! A33   A(18,15,19)           120.094          calculate D2E/DX2 analytically  !
 ! A34   A(14,18,15)           119.658          calculate D2E/DX2 analytically  !
 ! A35   A(14,18,20)           120.1875         calculate D2E/DX2 analytically  !
 ! A36   A(15,18,20)           120.1542         calculate D2E/DX2 analytically  !
 ! A37   A(10,23,22)           102.9922         calculate D2E/DX2 analytically  !
 ! A38   L(3,6,23,1,-1)        175.3818         calculate D2E/DX2 analytically  !
 ! A39   L(3,6,23,1,-2)        179.2435         calculate D2E/DX2 analytically  !
 ! D1    D(2,1,3,4)           -179.6624         calculate D2E/DX2 analytically  !
 ! D2    D(2,1,3,5)            -59.7537         calculate D2E/DX2 analytically  !
 ! D3    D(2,1,3,6)             63.4232         calculate D2E/DX2 analytically  !
 ! D4    D(21,1,3,4)            44.3387         calculate D2E/DX2 analytically  !
 ! D5    D(21,1,3,5)           164.2474         calculate D2E/DX2 analytically  !
 ! D6    D(21,1,3,6)           -72.5757         calculate D2E/DX2 analytically  !
 ! D7    D(1,3,5,7)            -51.8018         calculate D2E/DX2 analytically  !
 ! D8    D(1,3,5,8)             63.4324         calculate D2E/DX2 analytically  !
 ! D9    D(1,3,5,9)           -173.8256         calculate D2E/DX2 analytically  !
 ! D10   D(4,3,5,7)             67.299          calculate D2E/DX2 analytically  !
 ! D11   D(4,3,5,8)           -177.4669         calculate D2E/DX2 analytically  !
 ! D12   D(4,3,5,9)            -54.7248         calculate D2E/DX2 analytically  !
 ! D13   D(6,3,5,7)           -173.9276         calculate D2E/DX2 analytically  !
 ! D14   D(6,3,5,8)            -58.6934         calculate D2E/DX2 analytically  !
 ! D15   D(6,3,5,9)             64.0486         calculate D2E/DX2 analytically  !
 ! D16   D(1,3,6,10)           -75.5708         calculate D2E/DX2 analytically  !
 ! D17   D(1,3,6,22)            97.3371         calculate D2E/DX2 analytically  !
 ! D18   D(4,3,6,10)           167.033          calculate D2E/DX2 analytically  !
 ! D19   D(4,3,6,22)           -20.0591         calculate D2E/DX2 analytically  !
 ! D20   D(5,3,6,10)            47.0095         calculate D2E/DX2 analytically  !
 ! D21   D(5,3,6,22)          -140.0827         calculate D2E/DX2 analytically  !
 ! D22   D(3,5,9,11)           -92.0171         calculate D2E/DX2 analytically  !
 ! D23   D(3,5,9,12)            86.9908         calculate D2E/DX2 analytically  !
 ! D24   D(7,5,9,11)           148.5453         calculate D2E/DX2 analytically  !
 ! D25   D(7,5,9,12)           -32.4468         calculate D2E/DX2 analytically  !
 ! D26   D(8,5,9,11)            29.6227         calculate D2E/DX2 analytically  !
 ! D27   D(8,5,9,12)          -151.3694         calculate D2E/DX2 analytically  !
 ! D28   D(5,9,11,13)           -0.6786         calculate D2E/DX2 analytically  !
 ! D29   D(5,9,11,14)          178.9364         calculate D2E/DX2 analytically  !
 ! D30   D(12,9,11,13)        -179.7022         calculate D2E/DX2 analytically  !
 ! D31   D(12,9,11,14)          -0.0872         calculate D2E/DX2 analytically  !
 ! D32   D(5,9,12,15)         -178.9281         calculate D2E/DX2 analytically  !
 ! D33   D(5,9,12,16)            1.5653         calculate D2E/DX2 analytically  !
 ! D34   D(11,9,12,15)           0.1036         calculate D2E/DX2 analytically  !
 ! D35   D(11,9,12,16)        -179.403          calculate D2E/DX2 analytically  !
 ! D36   D(9,11,14,17)         179.8761         calculate D2E/DX2 analytically  !
 ! D37   D(9,11,14,18)           0.0147         calculate D2E/DX2 analytically  !
 ! D38   D(13,11,14,17)         -0.5119         calculate D2E/DX2 analytically  !
 ! D39   D(13,11,14,18)        179.6267         calculate D2E/DX2 analytically  !
 ! D40   D(9,12,15,18)          -0.0471         calculate D2E/DX2 analytically  !
 ! D41   D(9,12,15,19)        -179.7652         calculate D2E/DX2 analytically  !
 ! D42   D(16,12,15,18)        179.4579         calculate D2E/DX2 analytically  !
 ! D43   D(16,12,15,19)         -0.2602         calculate D2E/DX2 analytically  !
 ! D44   D(11,14,18,15)          0.0434         calculate D2E/DX2 analytically  !
 ! D45   D(11,14,18,20)        179.8599         calculate D2E/DX2 analytically  !
 ! D46   D(17,14,18,15)       -179.8175         calculate D2E/DX2 analytically  !
 ! D47   D(17,14,18,20)         -0.0011         calculate D2E/DX2 analytically  !
 ! D48   D(12,15,18,14)         -0.0273         calculate D2E/DX2 analytically  !
 ! D49   D(12,15,18,20)       -179.8438         calculate D2E/DX2 analytically  !
 ! D50   D(19,15,18,14)        179.6901         calculate D2E/DX2 analytically  !
 ! D51   D(19,15,18,20)         -0.1264         calculate D2E/DX2 analytically  !
 --------------------------------------------------------------------------------
 Trust Radius=3.00D-01 FncErr=1.00D-07 GrdErr=1.00D-06
 Number of steps in this run= 125 maximum allowed number of steps= 138.
 Search for a saddle point of order  1.
 GradGradGradGradGradGradGradGradGradGradGradGradGradGradGradGradGradGrad

                          Input orientation:                          
 ---------------------------------------------------------------------
 Center     Atomic     Atomic              Coordinates (Angstroms)
 Number     Number      Type              X           Y           Z
 ---------------------------------------------------------------------
    1          7             0       -2.857410   -1.488164   -0.161465
    2          1             0       -3.239021   -1.230515   -1.064135
    3          6             0       -1.617587   -0.802866    0.207791
    4          1             0       -1.305486   -1.166846    1.189968
    5          6             0       -0.508635   -1.096704   -0.829503
    6          6             0       -1.875289    0.678422    0.335147
    7          1             0       -0.469817   -2.185797   -0.933218
    8          1             0       -0.824772   -0.682612   -1.794817
    9          6             0        0.850934   -0.544733   -0.443601
   10          8             0       -2.032207    1.511969   -0.665824
   11          6             0        1.260395    0.733621   -0.861634
   12          6             0        1.720455   -1.301313    0.361656
   13          1             0        0.595439    1.329031   -1.479645
   14          6             0        2.507635    1.242153   -0.481639
   15          6             0        2.966949   -0.794571    0.742561
   16          1             0        1.420798   -2.295315    0.684058
   17          1             0        2.810007    2.230283   -0.814375
   18          6             0        3.363899    0.480353    0.321405
   19          1             0        3.627706   -1.393656    1.361514
   20          1             0        4.332080    0.874344    0.613948
   21          1             0       -3.555326   -1.561930    0.567767
   22          8             0       -2.108458    1.325525    1.444978
   23          1             0       -2.276955    2.234030    0.452859
 ---------------------------------------------------------------------
                    Distance matrix (angstroms):
                    1          2          3          4          5
     1  N    0.000000
     2  H    1.013323   0.000000
     3  C    1.463948   2.104692   0.000000
     4  H    2.082807   2.970453   1.092959   0.000000
     5  C    2.473107   2.743714   1.546640   2.172131   0.000000
     6  C    2.430078   2.731629   1.508921   2.111968   2.524921
     7  H    2.604399   2.932268   2.128797   2.498904   1.094709
     8  H    2.729170   2.581219   2.157187   3.061782   1.096926
     9  C    3.836858   4.193220   2.566036   2.775918   1.517241
    10  O    3.152164   3.022626   2.508700   3.338883   3.025432
    11  C    4.731055   4.913612   3.433255   3.795338   2.545700
    12  C    4.611444   5.160842   3.378557   3.140143   2.535659
    13  H    4.647188   4.628932   3.505697   4.119436   2.743329
    14  C    6.028337   6.283108   4.655628   4.810139   3.832642
    15  C    5.934770   6.478292   4.615628   4.311898   3.826533
    16  H    4.435027   5.089587   3.418482   2.993662   2.729514
    17  H    6.809754   6.973539   5.463369   5.700453   4.699197
    18  C    6.543157   6.960269   5.145363   5.027009   4.336844
    19  H    6.662216   7.284389   5.403074   4.941382   4.690208
    20  H    7.607330   8.035419   6.194880   6.023322   5.422278
    21  H    1.012081   1.694989   2.112012   2.367489   3.383951
    22  O    3.325422   3.755950   2.510306   2.630914   3.687803
    23  H    3.816943   3.902552   3.117300   3.612899   3.983114
                    6          7          8          9         10
     6  C    0.000000
     7  H    3.433344   0.000000
     8  H    2.737288   1.768590   0.000000
     9  C    3.087855   2.162683   2.157032   0.000000
    10  O    1.312009   4.023187   2.747492   3.548508   0.000000
    11  C    3.356761   3.394372   2.687837   1.405916   3.389011
    12  C    4.104806   2.693752   3.392838   1.406029   4.801327
    13  H    3.133889   3.713135   2.482547   2.156306   2.756863
    14  C    4.493880   4.562892   4.066214   2.437020   4.551581
    15  C    5.077693   4.068797   4.563767   2.438631   5.682890
    16  H    4.452981   2.490382   3.713249   2.158911   5.314211
    17  H    5.067709   5.502102   4.760025   3.417039   4.897456
    18  C    5.242949   4.835268   4.834858   2.819757   5.581829
    19  H    5.969078   4.762665   5.503869   3.419002   6.677378
    20  H    6.216715   5.900542   5.900795   3.905197   6.522924
    21  H    2.809949   3.487482   3.716306   4.633863   3.645613
    22  O    1.305693   4.546465   4.022031   3.977763   2.120392
    23  H    1.610934   4.972105   3.958242   4.278885   1.353782
                   11         12         13         14         15
    11  C    0.000000
    12  C    2.418481   0.000000
    13  H    1.085641   3.402170   0.000000
    14  C    1.399503   2.792851   2.158717   0.000000
    15  C    2.796630   1.398436   3.882260   2.420306   0.000000
    16  H    3.404313   1.087096   4.301013   3.879915   2.155513
    17  H    2.154885   3.878446   2.481764   1.085607   3.405646
    18  C    2.426614   2.424224   3.410045   1.399431   1.400133
    19  H    3.882249   2.155423   4.967882   3.405769   1.085636
    20  H    3.410630   3.408478   4.307245   2.159674   2.159954
    21  H    5.523035   5.286234   5.456959   6.761925   6.569586
    22  O    4.125528   4.768065   3.983025   5.002711   5.545084
    23  H    4.061030   5.337252   3.578302   4.974878   6.062580
                   16         17         18         19         20
    16  H    0.000000
    17  H    4.965505   0.000000
    18  C    3.407564   2.158483   0.000000
    19  H    2.478382   4.305352   2.159475   0.000000
    20  H    4.304325   2.489053   1.085442   2.489743   0.000000
    21  H    5.031221   7.537152   7.218538   7.228714   8.255225
    22  O    5.113231   5.487674   5.650082   6.348582   6.509586
    23  H    5.851649   5.242431   5.908629   6.989333   6.749373
                   21         22         23
    21  H    0.000000
    22  O    3.346688   0.000000
    23  H    4.007087   1.355755   0.000000
 Stoichiometry    C9H11NO2
 Framework group  C1[X(C9H11NO2)]
 Deg. of freedom    63
 Full point group                 C1
 Largest Abelian subgroup         C1      NOp   1
 Largest concise Abelian subgroup C1      NOp   1
                         Standard orientation:                         
 ---------------------------------------------------------------------
 Center     Atomic     Atomic              Coordinates (Angstroms)
 Number     Number      Type              X           Y           Z
 ---------------------------------------------------------------------
    1          7             0       -2.857410   -1.488164   -0.161465
    2          1             0       -3.239021   -1.230515   -1.064135
    3          6             0       -1.617587   -0.802866    0.207791
    4          1             0       -1.305486   -1.166846    1.189968
    5          6             0       -0.508635   -1.096704   -0.829503
    6          6             0       -1.875289    0.678422    0.335147
    7          1             0       -0.469817   -2.185797   -0.933218
    8          1             0       -0.824772   -0.682612   -1.794817
    9          6             0        0.850934   -0.544733   -0.443601
   10          8             0       -2.032207    1.511969   -0.665824
   11          6             0        1.260395    0.733621   -0.861634
   12          6             0        1.720455   -1.301313    0.361656
   13          1             0        0.595439    1.329031   -1.479645
   14          6             0        2.507635    1.242153   -0.481639
   15          6             0        2.966949   -0.794571    0.742561
   16          1             0        1.420798   -2.295315    0.684058
   17          1             0        2.810007    2.230283   -0.814375
   18          6             0        3.363899    0.480353    0.321405
   19          1             0        3.627706   -1.393656    1.361514
   20          1             0        4.332080    0.874344    0.613948
   21          1             0       -3.555326   -1.561930    0.567767
   22          8             0       -2.108458    1.325525    1.444978
   23          1             0       -2.276955    2.234030    0.452859
 ---------------------------------------------------------------------
 Rotational constants (GHZ):      1.6844606      0.5813011      0.5078362
 Standard basis: 6-311++G(d,p) (5D, 7F)
 There are   341 symmetry adapted basis functions of A   symmetry.
 Integral buffers will be    262144 words long.
 Raffenetti 2 integral format.
 Two-electron integral symmetry is turned on.
   341 basis functions,   531 primitive gaussians,   353 cartesian basis functions
    44 alpha electrons       44 beta electrons
       nuclear repulsion energy       676.2017358809 Hartrees.
 NAtoms=   23 NActive=   23 NUniq=   23 SFac= 7.50D-01 NAtFMM=   80 NAOKFM=F Big=F
 One-electron integrals computed using PRISM.
 NBasis=   341 RedAO= T  NBF=   341
 NBsUse=   340 1.00D-06 NBFU=   340
 Harris functional with IExCor=  402 diagonalized for initial guess.
 ExpMin= 3.60D-02 ExpMax= 8.59D+03 ExpMxC= 1.30D+03 IAcc=3 IRadAn=         5 AccDes= 0.00D+00
 HarFok:  IExCor= 402 AccDes= 0.00D+00 IRadAn=         5 IDoV=1
 ScaDFX=  1.000000  1.000000  1.000000  1.000000
 Initial guess orbital symmetries:
       Occupied  (A) (A) (A) (A) (A) (A) (A) (A) (A) (A) (A) (A)
                 (A) (A) (A) (A) (A) (A) (A) (A) (A) (A) (A) (A)
                 (A) (A) (A) (A) (A) (A) (A) (A) (A) (A) (A) (A)
                 (A) (A) (A) (A) (A) (A) (A) (A)
       Virtual   (A) (A) (A) (A) (A) (A) (A) (A) (A) (A) (A) (A)
                 (A) (A) (A) (A) (A) (A) (A) (A) (A) (A) (A) (A)
                 (A) (A) (A) (A) (A) (A) (A) (A) (A) (A) (A) (A)
                 (A) (A) (A) (A) (A) (A) (A) (A) (A) (A) (A) (A)
                 (A) (A) (A) (A) (A) (A) (A) (A) (A) (A) (A) (A)
                 (A) (A) (A) (A) (A) (A) (A) (A) (A) (A) (A) (A)
                 (A) (A) (A) (A) (A) (A) (A) (A) (A) (A) (A) (A)
                 (A) (A) (A) (A) (A) (A) (A) (A) (A) (A) (A) (A)
                 (A) (A) (A) (A) (A) (A) (A) (A) (A) (A) (A) (A)
                 (A) (A) (A) (A) (A) (A) (A) (A) (A) (A) (A) (A)
                 (A) (A) (A) (A) (A) (A) (A) (A) (A) (A) (A) (A)
                 (A) (A) (A) (A) (A) (A) (A) (A) (A) (A) (A) (A)
                 (A) (A) (A) (A) (A) (A) (A) (A) (A) (A) (A) (A)
                 (A) (A) (A) (A) (A) (A) (A) (A) (A) (A) (A) (A)
                 (A) (A) (A) (A) (A) (A) (A) (A) (A) (A) (A) (A)
                 (A) (A) (A) (A) (A) (A) (A) (A) (A) (A) (A) (A)
                 (A) (A) (A) (A) (A) (A) (A) (A) (A) (A) (A) (A)
                 (A) (A) (A) (A) (A) (A) (A) (A) (A) (A) (A) (A)
                 (A) (A) (A) (A) (A) (A) (A) (A) (A) (A) (A) (A)
                 (A) (A) (A) (A) (A) (A) (A) (A) (A) (A) (A) (A)
                 (A) (A) (A) (A) (A) (A) (A) (A) (A) (A) (A) (A)
                 (A) (A) (A) (A) (A) (A) (A) (A) (A) (A) (A) (A)
                 (A) (A) (A) (A) (A) (A) (A) (A) (A) (A) (A) (A)
                 (A) (A) (A) (A) (A) (A) (A) (A) (A) (A) (A) (A)
                 (A) (A) (A) (A) (A) (A) (A) (A)
 The electronic state of the initial guess is 1-A.
 Requested convergence on RMS density matrix=1.00D-08 within 128 cycles.
 Requested convergence on MAX density matrix=1.00D-06.
 Requested convergence on             energy=1.00D-06.
 No special actions if energy rises.
 SCF Done:  E(RB+HF-LYP) =  -554.897241817     A.U. after   14 cycles
             Convg  =    0.9052D-08             -V/T =  2.0048
             S**2   =   0.0000
 Range of M.O.s used for correlation:     1   340
 NBasis=   341 NAE=    44 NBE=    44 NFC=     0 NFV=     0
 NROrb=    340 NOA=    44 NOB=    44 NVA=   296 NVB=   296

 **** Warning!!: The largest alpha MO coefficient is  0.14077338D+03

 Symmetrizing basis deriv contribution to polar:
 IMax=3 JMax=2 DiffMx= 0.00D+00
 G2DrvN: will do    8 centers at a time, making    3 passes doing MaxLOS=2.
 FoFDir/FoFCou used for L=0 through L=2.
 DoAtom=TTTTTTTTTTTTTTTTTTTTTTT
          Differentiating once with respect to electric field.
                with respect to dipole field.
          Differentiating once with respect to nuclear coordinates.
 Integrals replicated using symmetry in FoFDir.
 MinBra= 0 MaxBra= 2 Meth= 1.
 IRaf=       0 NMat=  36 IRICut=      36 DoRegI=T DoRafI=T ISym2E= 2 JSym2E=2.
 CalDSu would require       84707 more words of memory to run efficiently.
 CalDSu:  MaxMB=  44 is small; additional memory will improve performance.
 CalDSu would require       84707 more words of memory to run efficiently.
 CalDSu:  MaxMB=  44 is small; additional memory will improve performance.
          There are  72 degrees of freedom in the 1st order CPHF.
    71 vectors were produced by pass  0.
 AX will form  36 AO Fock derivatives at one time.
 CalDSu would require       84707 more words of memory to run efficiently.
 CalDSu:  MaxMB=  44 is small; additional memory will improve performance.
 CalDSu would require       84560 more words of memory to run efficiently.
 CalDSu:  MaxMB=  44 is small; additional memory will improve performance.
    69 vectors were produced by pass  1.
    69 vectors were produced by pass  2.
    69 vectors were produced by pass  3.
    51 vectors were produced by pass  4.
     8 vectors were produced by pass  5.
     3 vectors were produced by pass  6.
     1 vectors were produced by pass  7.
 Inv2:  IOpt= 1 Iter= 1 AM= 2.62D-15 Conv= 1.00D-12.
 Inverted reduced A of dimension  341 with in-core refinement.
 CalDSu would require       84707 more words of memory to run efficiently.
 CalDSu:  MaxMB=  44 is small; additional memory will improve performance.
 CalDSu would require       84707 more words of memory to run efficiently.
 CalDSu:  MaxMB=  44 is small; additional memory will improve performance.
 Isotropic polarizability for W=    0.000000      120.63 Bohr**3.
 End of Minotr Frequency-dependent properties file   721 does not exist.

 **********************************************************************

            Population analysis using the SCF density.

 **********************************************************************

 Orbital symmetries:
       Occupied  (A) (A) (A) (A) (A) (A) (A) (A) (A) (A) (A) (A)
                 (A) (A) (A) (A) (A) (A) (A) (A) (A) (A) (A) (A)
                 (A) (A) (A) (A) (A) (A) (A) (A) (A) (A) (A) (A)
                 (A) (A) (A) (A) (A) (A) (A) (A)
       Virtual   (A) (A) (A) (A) (A) (A) (A) (A) (A) (A) (A) (A)
                 (A) (A) (A) (A) (A) (A) (A) (A) (A) (A) (A) (A)
                 (A) (A) (A) (A) (A) (A) (A) (A) (A) (A) (A) (A)
                 (A) (A) (A) (A) (A) (A) (A) (A) (A) (A) (A) (A)
                 (A) (A) (A) (A) (A) (A) (A) (A) (A) (A) (A) (A)
                 (A) (A) (A) (A) (A) (A) (A) (A) (A) (A) (A) (A)
                 (A) (A) (A) (A) (A) (A) (A) (A) (A) (A) (A) (A)
                 (A) (A) (A) (A) (A) (A) (A) (A) (A) (A) (A) (A)
                 (A) (A) (A) (A) (A) (A) (A) (A) (A) (A) (A) (A)
                 (A) (A) (A) (A) (A) (A) (A) (A) (A) (A) (A) (A)
                 (A) (A) (A) (A) (A) (A) (A) (A) (A) (A) (A) (A)
                 (A) (A) (A) (A) (A) (A) (A) (A) (A) (A) (A) (A)
                 (A) (A) (A) (A) (A) (A) (A) (A) (A) (A) (A) (A)
                 (A) (A) (A) (A) (A) (A) (A) (A) (A) (A) (A) (A)
                 (A) (A) (A) (A) (A) (A) (A) (A) (A) (A) (A) (A)
                 (A) (A) (A) (A) (A) (A) (A) (A) (A) (A) (A) (A)
                 (A) (A) (A) (A) (A) (A) (A) (A) (A) (A) (A) (A)
                 (A) (A) (A) (A) (A) (A) (A) (A) (A) (A) (A) (A)
                 (A) (A) (A) (A) (A) (A) (A) (A) (A) (A) (A) (A)
                 (A) (A) (A) (A) (A) (A) (A) (A) (A) (A) (A) (A)
                 (A) (A) (A) (A) (A) (A) (A) (A) (A) (A) (A) (A)
                 (A) (A) (A) (A) (A) (A) (A) (A) (A) (A) (A) (A)
                 (A) (A) (A) (A) (A) (A) (A) (A) (A) (A) (A) (A)
                 (A) (A) (A) (A) (A) (A) (A) (A) (A) (A) (A) (A)
                 (A) (A) (A) (A) (A) (A) (A) (A)
 The electronic state is 1-A.
 Alpha  occ. eigenvalues --  -19.15143 -19.14988 -14.32485 -10.32506 -10.24717
 Alpha  occ. eigenvalues --  -10.19419 -10.19309 -10.18381 -10.18327 -10.18262
 Alpha  occ. eigenvalues --  -10.18190 -10.18057  -1.11927  -0.98232  -0.91971
 Alpha  occ. eigenvalues --   -0.86520  -0.79629  -0.75331  -0.73906  -0.67648
 Alpha  occ. eigenvalues --   -0.61567  -0.59881  -0.57047  -0.53703  -0.51783
 Alpha  occ. eigenvalues --   -0.50772  -0.48747  -0.47501  -0.46637  -0.46446
 Alpha  occ. eigenvalues --   -0.43888  -0.43059  -0.42268  -0.41346  -0.39949
 Alpha  occ. eigenvalues --   -0.38021  -0.36531  -0.35233  -0.34938  -0.31476
 Alpha  occ. eigenvalues --   -0.30073  -0.27075  -0.26217  -0.25546
 Alpha virt. eigenvalues --   -0.04055  -0.02386  -0.02117  -0.01536  -0.00425
 Alpha virt. eigenvalues --    0.00224   0.00906   0.01497   0.02153   0.03526
 Alpha virt. eigenvalues --    0.03895   0.04413   0.05301   0.06047   0.06658
 Alpha virt. eigenvalues --    0.07131   0.07658   0.08479   0.08810   0.09006
 Alpha virt. eigenvalues --    0.09833   0.10070   0.10685   0.11094   0.11130
 Alpha virt. eigenvalues --    0.11682   0.11847   0.11972   0.12739   0.12910
 Alpha virt. eigenvalues --    0.13280   0.13686   0.14165   0.14701   0.15433
 Alpha virt. eigenvalues --    0.15817   0.16555   0.16806   0.17185   0.17581
 Alpha virt. eigenvalues --    0.17793   0.18055   0.18320   0.19123   0.19428
 Alpha virt. eigenvalues --    0.19844   0.20605   0.20954   0.21597   0.22027
 Alpha virt. eigenvalues --    0.22970   0.23575   0.24123   0.24515   0.24810
 Alpha virt. eigenvalues --    0.25119   0.25918   0.26544   0.26930   0.27314
 Alpha virt. eigenvalues --    0.28127   0.28607   0.29210   0.29681   0.29868
 Alpha virt. eigenvalues --    0.30211   0.30513   0.31983   0.32297   0.32812
 Alpha virt. eigenvalues --    0.33283   0.33828   0.34576   0.35457   0.35987
 Alpha virt. eigenvalues --    0.36513   0.37561   0.38571   0.38667   0.39779
 Alpha virt. eigenvalues --    0.40525   0.41612   0.43800   0.47092   0.48368
 Alpha virt. eigenvalues --    0.50934   0.52400   0.53365   0.54179   0.55446
 Alpha virt. eigenvalues --    0.55786   0.56458   0.56920   0.57404   0.58327
 Alpha virt. eigenvalues --    0.59183   0.60324   0.61045   0.61809   0.62087
 Alpha virt. eigenvalues --    0.62830   0.66085   0.67327   0.68348   0.69962
 Alpha virt. eigenvalues --    0.70544   0.70878   0.71446   0.71770   0.72398
 Alpha virt. eigenvalues --    0.73480   0.74126   0.75357   0.76059   0.76933
 Alpha virt. eigenvalues --    0.77881   0.79522   0.82309   0.83632   0.84804
 Alpha virt. eigenvalues --    0.85971   0.86392   0.87565   0.88103   0.89727
 Alpha virt. eigenvalues --    0.90467   0.91452   0.93444   0.95210   0.97670
 Alpha virt. eigenvalues --    1.00571   1.01608   1.02818   1.04614   1.06293
 Alpha virt. eigenvalues --    1.08112   1.09472   1.09542   1.11931   1.12785
 Alpha virt. eigenvalues --    1.14314   1.15394   1.17220   1.18888   1.20175
 Alpha virt. eigenvalues --    1.22018   1.24366   1.26847   1.29702   1.31093
 Alpha virt. eigenvalues --    1.32683   1.36376   1.40224   1.42138   1.44290
 Alpha virt. eigenvalues --    1.46984   1.47735   1.49194   1.51107   1.51679
 Alpha virt. eigenvalues --    1.53665   1.55369   1.55633   1.56666   1.57542
 Alpha virt. eigenvalues --    1.58906   1.60712   1.61528   1.62719   1.64062
 Alpha virt. eigenvalues --    1.64835   1.66215   1.68863   1.70272   1.72377
 Alpha virt. eigenvalues --    1.73946   1.75308   1.76110   1.77740   1.78261
 Alpha virt. eigenvalues --    1.79933   1.81274   1.83255   1.84896   1.87067
 Alpha virt. eigenvalues --    1.87548   1.90162   1.92207   1.92660   1.93987
 Alpha virt. eigenvalues --    1.95000   1.95597   1.96148   1.98925   2.01238
 Alpha virt. eigenvalues --    2.03871   2.04524   2.07849   2.09717   2.12621
 Alpha virt. eigenvalues --    2.13426   2.18295   2.21193   2.25316   2.27809
 Alpha virt. eigenvalues --    2.32242   2.32824   2.36479   2.39635   2.42645
 Alpha virt. eigenvalues --    2.45285   2.45759   2.46658   2.53711   2.55525
 Alpha virt. eigenvalues --    2.56630   2.60466   2.61107   2.62687   2.63385
 Alpha virt. eigenvalues --    2.66147   2.67868   2.69055   2.70431   2.71911
 Alpha virt. eigenvalues --    2.72625   2.73516   2.74852   2.76487   2.77373
 Alpha virt. eigenvalues --    2.79109   2.81218   2.82629   2.83352   2.85097
 Alpha virt. eigenvalues --    2.85381   2.88765   2.90678   2.91183   2.91988
 Alpha virt. eigenvalues --    2.93432   2.95341   2.97026   2.98037   3.01299
 Alpha virt. eigenvalues --    3.03821   3.07520   3.09211   3.15709   3.17402
 Alpha virt. eigenvalues --    3.18410   3.19968   3.28367   3.31512   3.33128
 Alpha virt. eigenvalues --    3.33938   3.37024   3.37801   3.49101   3.53249
 Alpha virt. eigenvalues --    3.57957   3.61003   3.63706   3.69741   3.73181
 Alpha virt. eigenvalues --    3.84041   3.99231   3.99721   4.03443   4.06821
 Alpha virt. eigenvalues --    4.10312   4.14622   4.15642   4.23743   4.34065
 Alpha virt. eigenvalues --    4.74280   4.83286   4.84406   5.01982   5.04440
 Alpha virt. eigenvalues --    5.07987   5.29141   5.48811   5.78096  23.61851
 Alpha virt. eigenvalues --   23.71572  23.80488  23.90113  23.95782  23.96984
 Alpha virt. eigenvalues --   24.06320  24.07702  24.16722  35.59624  49.89256
 Alpha virt. eigenvalues --   49.95588
          Condensed to atoms (all electrons):
              1          2          3          4          5          6
     1  N    6.694542   0.344549  -0.396538  -0.041137   0.223371   0.069957
     2  H    0.344549   0.449806   0.093703   0.012145  -0.061830  -0.038836
     3  C   -0.396538   0.093703  12.408336   0.661274  -2.512268  -3.332336
     4  H   -0.041137   0.012145   0.661274   0.562929   0.006472  -0.304311
     5  C    0.223371  -0.061830  -2.512268   0.006472  11.673473   0.183881
     6  C    0.069957  -0.038836  -3.332336  -0.304311   0.183881   8.584920
     7  H   -0.005304  -0.001866  -0.112520  -0.014093   0.392098   0.000767
     8  H    0.014622  -0.002080   0.072499   0.025468   0.527804  -0.119831
     9  C    0.062643  -0.011245  -1.154895  -0.081384  -1.955878   0.495078
    10  O   -0.020752   0.008501  -0.305730   0.003203   0.179828   0.442884
    11  C   -0.022840   0.001637   0.339200   0.000674  -0.596909  -0.031020
    12  C   -0.039697   0.005377   0.290299  -0.037791  -1.160580   0.034763
    13  H   -0.016383   0.001958   0.080359  -0.000649  -0.053428  -0.070584
    14  C   -0.012883  -0.000925   0.326805   0.009368  -0.160563  -0.028497
    15  C   -0.003890   0.001325   0.010104  -0.036748  -0.471111   0.064716
    16  H   -0.001705   0.000132   0.023581  -0.002146  -0.033658   0.005920
    17  H    0.000420  -0.000095  -0.004783  -0.000191   0.013721   0.002115
    18  C    0.001083   0.000323   0.060398   0.005951  -0.014264   0.023220
    19  H   -0.000144  -0.000031  -0.001801  -0.000505   0.007166  -0.001663
    20  H   -0.000058   0.000007   0.001158   0.000238  -0.005118  -0.000623
    21  H    0.399024  -0.039231  -0.112411  -0.013779   0.017933   0.053611
    22  O   -0.020815  -0.000210  -0.050343   0.005570   0.053359   0.271369
    23  H    0.001562   0.000643  -0.017546  -0.004779  -0.002393   0.038426
              7          8          9         10         11         12
     1  N   -0.005304   0.014622   0.062643  -0.020752  -0.022840  -0.039697
     2  H   -0.001866  -0.002080  -0.011245   0.008501   0.001637   0.005377
     3  C   -0.112520   0.072499  -1.154895  -0.305730   0.339200   0.290299
     4  H   -0.014093   0.025468  -0.081384   0.003203   0.000674  -0.037791
     5  C    0.392098   0.527804  -1.955878   0.179828  -0.596909  -1.160580
     6  C    0.000767  -0.119831   0.495078   0.442884  -0.031020   0.034763
     7  H    0.531560  -0.035166   0.019454   0.005328   0.122538  -0.119281
     8  H   -0.035166   0.555783  -0.182133  -0.011003   0.032976  -0.047260
     9  C    0.019454  -0.182133   9.567645  -0.089768  -0.824051   0.332659
    10  O    0.005328  -0.011003  -0.089768   8.172143   0.060667  -0.033680
    11  C    0.122538   0.032976  -0.824051   0.060667   9.576619  -2.850792
    12  C   -0.119281  -0.047260   0.332659  -0.033680  -2.850792   9.008626
    13  H    0.008886  -0.020828  -0.056627   0.005732   0.471177  -0.020465
    14  C   -0.019545   0.029434  -0.740173  -0.031630   0.185343   0.435151
    15  C    0.028720  -0.040754  -0.382627   0.003638   0.773344   0.139505
    16  H   -0.004018   0.001507  -0.034887  -0.000921  -0.013442   0.420408
    17  H    0.000029   0.002503   0.016295   0.000465  -0.065102   0.007517
    18  C   -0.015248  -0.005377   0.098174  -0.011449  -0.677242  -0.161502
    19  H    0.001742   0.000290   0.021878   0.000182   0.028756  -0.077999
    20  H   -0.000243  -0.000503   0.033598  -0.000159  -0.021237   0.000204
    21  H    0.000794   0.000945   0.008477  -0.001291  -0.002905   0.000076
    22  O    0.002561  -0.002067  -0.055549  -0.240669   0.006002  -0.015685
    23  H   -0.000349  -0.002256   0.000311   0.132780   0.007129  -0.001026
             13         14         15         16         17         18
     1  N   -0.016383  -0.012883  -0.003890  -0.001705   0.000420   0.001083
     2  H    0.001958  -0.000925   0.001325   0.000132  -0.000095   0.000323
     3  C    0.080359   0.326805   0.010104   0.023581  -0.004783   0.060398
     4  H   -0.000649   0.009368  -0.036748  -0.002146  -0.000191   0.005951
     5  C   -0.053428  -0.160563  -0.471111  -0.033658   0.013721  -0.014264
     6  C   -0.070584  -0.028497   0.064716   0.005920   0.002115   0.023220
     7  H    0.008886  -0.019545   0.028720  -0.004018   0.000029  -0.015248
     8  H   -0.020828   0.029434  -0.040754   0.001507   0.002503  -0.005377
     9  C   -0.056627  -0.740173  -0.382627  -0.034887   0.016295   0.098174
    10  O    0.005732  -0.031630   0.003638  -0.000921   0.000465  -0.011449
    11  C    0.471177   0.185343   0.773344  -0.013442  -0.065102  -0.677242
    12  C   -0.020465   0.435151   0.139505   0.420408   0.007517  -0.161502
    13  H    0.535883  -0.085146   0.038450  -0.002331  -0.019423   0.000255
    14  C   -0.085146   5.806007  -0.111556   0.010365   0.410417   0.378224
    15  C    0.038450  -0.111556   5.692082  -0.071406   0.007477   0.298904
    16  H   -0.002331   0.010365  -0.071406   0.555717   0.000390   0.019424
    17  H   -0.019423   0.410417   0.007477   0.000390   0.540147  -0.072865
    18  C    0.000255   0.378224   0.298904   0.019424  -0.072865   5.987414
    19  H    0.001063   0.010477   0.408834  -0.017253   0.000201  -0.083396
    20  H    0.001281  -0.078277  -0.077874   0.000129  -0.017592   0.477862
    21  H   -0.001178   0.000844  -0.000772  -0.000303   0.000059  -0.000064
    22  O    0.001221   0.014237  -0.005738  -0.000863  -0.000639   0.007673
    23  H    0.000459   0.001180   0.002630   0.000057   0.000121  -0.001954
             19         20         21         22         23
     1  N   -0.000144  -0.000058   0.399024  -0.020815   0.001562
     2  H   -0.000031   0.000007  -0.039231  -0.000210   0.000643
     3  C   -0.001801   0.001158  -0.112411  -0.050343  -0.017546
     4  H   -0.000505   0.000238  -0.013779   0.005570  -0.004779
     5  C    0.007166  -0.005118   0.017933   0.053359  -0.002393
     6  C   -0.001663  -0.000623   0.053611   0.271369   0.038426
     7  H    0.001742  -0.000243   0.000794   0.002561  -0.000349
     8  H    0.000290  -0.000503   0.000945  -0.002067  -0.002256
     9  C    0.021878   0.033598   0.008477  -0.055549   0.000311
    10  O    0.000182  -0.000159  -0.001291  -0.240669   0.132780
    11  C    0.028756  -0.021237  -0.002905   0.006002   0.007129
    12  C   -0.077999   0.000204   0.000076  -0.015685  -0.001026
    13  H    0.001063   0.001281  -0.001178   0.001221   0.000459
    14  C    0.010477  -0.078277   0.000844   0.014237   0.001180
    15  C    0.408834  -0.077874  -0.000772  -0.005738   0.002630
    16  H   -0.017253   0.000129  -0.000303  -0.000863   0.000057
    17  H    0.000201  -0.017592   0.000059  -0.000639   0.000121
    18  C   -0.083396   0.477862  -0.000064   0.007673  -0.001954
    19  H    0.545408  -0.016647   0.000014  -0.000202   0.000046
    20  H   -0.016647   0.553142  -0.000010   0.000114  -0.000091
    21  H    0.000014  -0.000010   0.433712  -0.004217   0.000908
    22  O   -0.000202   0.000114  -0.004217   8.147137   0.119230
    23  H    0.000046  -0.000091   0.000908   0.119230   0.413669
 Mulliken atomic charges:
              1
     1  N   -0.229625
     2  H    0.236242
     3  C   -0.366543
     4  H    0.244219
     5  C   -0.251106
     6  C   -0.343924
     7  H    0.213156
     8  H    0.205428
     9  C    0.913007
    10  O   -0.268298
    11  C   -0.500521
    12  C   -0.108827
    13  H    0.200320
    14  C   -0.348657
    15  C   -0.267255
    16  H    0.145305
    17  H    0.178813
    18  C   -0.315543
    19  H    0.173583
    20  H    0.150697
    21  H    0.259765
    22  O   -0.231476
    23  H    0.311241
 Sum of Mulliken charges=   0.00000
 Atomic charges with hydrogens summed into heavy atoms:
              1
     1  N    0.266382
     2  H    0.000000
     3  C   -0.122324
     4  H    0.000000
     5  C    0.167478
     6  C   -0.343924
     7  H    0.000000
     8  H    0.000000
     9  C    0.913007
    10  O    0.042943
    11  C   -0.300201
    12  C    0.036479
    13  H    0.000000
    14  C   -0.169844
    15  C   -0.093672
    16  H    0.000000
    17  H    0.000000
    18  C   -0.164846
    19  H    0.000000
    20  H    0.000000
    21  H    0.000000
    22  O   -0.231476
    23  H    0.000000
 Sum of Mulliken charges=   0.00000
 APT atomic charges:
              1
     1  N   -0.557315
     2  H    0.177091
     3  C    0.328781
     4  H   -0.000020
     5  C    0.088796
     6  C    0.800891
     7  H   -0.010484
     8  H   -0.007882
     9  C    0.042021
    10  O   -0.713941
    11  C   -0.081903
    12  C   -0.062975
    13  H    0.058596
    14  C   -0.009175
    15  C   -0.021153
    16  H    0.032117
    17  H    0.029773
    18  C   -0.046669
    19  H    0.028921
    20  H    0.033284
    21  H    0.161913
    22  O   -0.691105
    23  H    0.420435
 Sum of APT charges=   0.00000
 APT Atomic charges with hydrogens summed into heavy atoms:
              1
     1  N   -0.218310
     2  H    0.000000
     3  C    0.328760
     4  H    0.000000
     5  C    0.070430
     6  C    0.800891
     7  H    0.000000
     8  H    0.000000
     9  C    0.042021
    10  O   -0.293505
    11  C   -0.023307
    12  C   -0.030857
    13  H    0.000000
    14  C    0.020598
    15  C    0.007769
    16  H    0.000000
    17  H    0.000000
    18  C   -0.013385
    19  H    0.000000
    20  H    0.000000
    21  H    0.000000
    22  O   -0.691105
    23  H    0.000000
 Sum of APT charges=   0.00000
 Electronic spatial extent (au):  <R**2>=  2295.9884
 Charge=     0.0000 electrons
 Dipole moment (field-independent basis, Debye):
    X=    -0.0279    Y=    -1.3045    Z=    -0.2670  Tot=     1.3319
 Quadrupole moment (field-independent basis, Debye-Ang):
   XX=   -65.0053   YY=   -70.9751   ZZ=   -75.9668
   XY=     4.1963   XZ=     3.1236   YZ=    -3.3090
 Traceless Quadrupole moment (field-independent basis, Debye-Ang):
   XX=     5.6438   YY=    -0.3261   ZZ=    -5.3178
   XY=     4.1963   XZ=     3.1236   YZ=    -3.3090
 Octapole moment (field-independent basis, Debye-Ang**2):
  XXX=   -33.9200  YYY=    21.6602  ZZZ=    -6.3996  XYY=     1.9559
  XXY=    -1.5362  XXZ=    11.2433  XZZ=    -6.6394  YZZ=    -8.5343
  YYZ=     4.8390  XYZ=    -3.7585
 Hexadecapole moment (field-independent basis, Debye-Ang**3):
 XXXX= -1935.5035 YYYY=  -633.0571 ZZZZ=  -326.3852 XXXY=    58.5239
 XXXZ=    48.8932 YYYX=   -47.0073 YYYZ=    -8.2379 ZZZX=    17.5957
 ZZZY=    -8.2367 XXYY=  -449.7307 XXZZ=  -419.2578 YYZZ=  -162.6579
 XXYZ=   -20.1649 YYXZ=   -11.9606 ZZXY=    17.6810
 N-N= 6.762017358809D+02 E-N=-2.646558918346D+03  KE= 5.522516929331D+02
  Exact polarizability: 139.304   9.415 123.544  10.879  -7.627  99.037
 Approx polarizability: 188.054  14.341 197.509  23.080 -21.603 170.444
 ***** Axes restored to original set *****
 -------------------------------------------------------------------
 Center     Atomic                   Forces (Hartrees/Bohr)
 Number     Number              X              Y              Z
 -------------------------------------------------------------------
    1          7           0.007046176   -0.007525248   -0.000269874
    2          1          -0.000780343    0.003094296    0.004231128
    3          6          -0.002747191   -0.001151588   -0.002581867
    4          1          -0.000909440    0.000563589   -0.000795100
    5          6          -0.001024937    0.000740402    0.000119780
    6          6          -0.017377009    0.052439339    0.004174863
    7          1           0.000399840    0.001526551    0.000203823
    8          1           0.000766861   -0.000925031    0.001564648
    9          6           0.002928613    0.001238028    0.000926434
   10          8           0.003699628   -0.017398935    0.029365239
   11          6           0.002639680   -0.003311588    0.002809311
   12          6           0.000726878    0.004366991   -0.001760830
   13          1           0.000836663   -0.000448003    0.000431570
   14          6          -0.000998703   -0.004138901    0.001450577
   15          6          -0.002505428    0.002596038   -0.002520766
   16          1           0.000473717    0.000846484   -0.000219200
   17          1          -0.000220225   -0.000850439    0.000299760
   18          6          -0.004073038   -0.001647284   -0.001200540
   19          1          -0.000551834    0.000510325   -0.000564318
   20          1          -0.000849738   -0.000359552   -0.000263624
   21          1           0.000668086    0.004948286   -0.002468220
   22          8           0.006194033   -0.012401271   -0.030994557
   23          1           0.005657712   -0.022712489   -0.001938236
 -------------------------------------------------------------------
 Cartesian Forces:  Max     0.052439339 RMS     0.009530913

 GradGradGradGradGradGradGradGradGradGradGradGradGradGradGradGradGradGrad
 Berny optimization.
 Internal  Forces:  Max     0.026804834 RMS     0.004618857
 Search for a saddle point.
 Step number   1 out of a maximum of 125
 All quantities printed in internal units (Hartrees-Bohrs-Radians)
 Swaping is turned off.
 Second derivative matrix not updated -- analytic derivatives used.
     Eigenvalues ---   -0.10501   0.00161   0.00199   0.00315   0.00489
     Eigenvalues ---    0.00793   0.01611   0.01704   0.01724   0.02065
     Eigenvalues ---    0.02332   0.02432   0.02617   0.02783   0.02837
     Eigenvalues ---    0.03089   0.04150   0.04281   0.04665   0.05070
     Eigenvalues ---    0.05480   0.05610   0.07431   0.07713   0.10717
     Eigenvalues ---    0.11280   0.11343   0.11734   0.12170   0.12394
     Eigenvalues ---    0.12585   0.13855   0.14589   0.17380   0.18595
     Eigenvalues ---    0.19081   0.19294   0.19575   0.20470   0.20710
     Eigenvalues ---    0.25443   0.27063   0.28000   0.30360   0.32621
     Eigenvalues ---    0.33024   0.33450   0.34888   0.35138   0.35277
     Eigenvalues ---    0.35313   0.35477   0.35583   0.36255   0.39768
     Eigenvalues ---    0.40018   0.44631   0.44920   0.45533   0.45836
     Eigenvalues ---    0.46044   0.46675   0.488261000.000001000.00000
     Eigenvalues --- 1000.000001000.000001000.000001000.000001000.00000
     Eigenvalues --- 1000.000001000.000001000.000001000.000001000.00000
     Eigenvalues --- 1000.000001000.000001000.000001000.000001000.00000
     Eigenvalues --- 1000.000001000.000001000.000001000.000001000.00000
     Eigenvalues --- 1000.000001000.000001000.000001000.000001000.00000
     Eigenvalues --- 1000.000001000.000001000.000001000.000001000.00000
     Eigenvalues --- 1000.000001000.000001000.000001000.000001000.00000
     Eigenvalues --- 1000.000001000.000001000.000001000.000001000.00000
     Eigenvalues --- 1000.000001000.000001000.000001000.000001000.00000
     Eigenvalues --- 1000.000001000.000001000.000001000.000001000.00000
 Eigenvectors required to have negative eigenvalues:
                          R1        R2        R3        R4        R5
         1              0.00026  -0.00185  -0.00026   0.00399  -0.00499
                          R6        R7        R8        R9        R10
         1              0.00391  -0.00005  -0.00174   0.00012  -0.13459
                          R11       R12       R13       R14       R15
         1              0.13076  -0.00107   0.00029   0.00025   0.64472
                          R16       R17       R18       R19       R20
         1             -0.00048   0.00004   0.00029   0.00008   0.00006
                          R21       R22       R23       R24       R25
         1              0.00032  -0.00008   0.00006   0.00007  -0.64376
                          A1        A2        A3        A4        A5
         1             -0.00631   0.00085   0.00395  -0.00770   0.01113
                          A6        A7        A8        A9        A10
         1             -0.00312  -0.00420   0.01870  -0.01455  -0.00217
                          A11       A12       A13       A14       A15
         1             -0.00254   0.00120   0.00263  -0.00031   0.00116
                          A16       A17       A18       A19       A20
         1             -0.05621   0.05701   0.00025  -0.00029   0.00023
                          A21       A22       A23       A24       A25
         1              0.00007  -0.00125  -0.00044   0.00169   0.00022
                          A26       A27       A28       A29       A30
         1             -0.00009  -0.00013  -0.00028   0.00044  -0.00016
                          A31       A32       A33       A34       A35
         1             -0.00023   0.00015   0.00008  -0.00005   0.00008
                          A36       A37       A38       A39       D1
         1             -0.00003  -0.00207   0.06002  -0.35035   0.00256
                          D2        D3        D4        D5        D6
         1             -0.00072  -0.01371   0.00401   0.00072  -0.01226
                          D7        D8        D9        D10       D11
         1             -0.00029   0.00045   0.00089  -0.00556  -0.00481
                          D12       D13       D14       D15       D16
         1             -0.00438   0.00591   0.00665   0.00708  -0.01269
                          D17       D18       D19       D20       D21
         1             -0.00050  -0.01240  -0.00022  -0.01054   0.00164
                          D22       D23       D24       D25       D26
         1             -0.00041   0.00012   0.00180   0.00232  -0.00201
                          D27       D28       D29       D30       D31
         1             -0.00148   0.00089   0.00063   0.00037   0.00012
                          D32       D33       D34       D35       D36
         1             -0.00056  -0.00024  -0.00005   0.00027  -0.00009
                          D37       D38       D39       D40       D41
         1             -0.00014  -0.00036  -0.00041   0.00001   0.00016
                          D42       D43       D44       D45       D46
         1             -0.00031  -0.00016   0.00010   0.00000   0.00005
                          D47       D48       D49       D50       D51
         1             -0.00006  -0.00003   0.00007  -0.00018  -0.00008
 RFO step:  Lambda0=2.495441963D-08 Lambda=-1.10327749D-02.
 Linear search not attempted -- option 19 set.
 Maximum step size (   0.300) exceeded in Quadratic search.
    -- Step size scaled by   0.713
 Iteration  1 RMS(Cart)=  0.02429927 RMS(Int)=  0.00150290
 Iteration  2 RMS(Cart)=  0.00116155 RMS(Int)=  0.00108825
 Iteration  3 RMS(Cart)=  0.00000666 RMS(Int)=  0.00108824
 Iteration  4 RMS(Cart)=  0.00000006 RMS(Int)=  0.00108824
 Variable       Old X    -DE/DX   Delta X   Delta X   Delta X     New X
                                 (Linear)    (Quad)   (Total)
    R1        1.91490  -0.00270   0.00000   0.00160   0.00160   1.91650
    R2        2.76646  -0.00649   0.00000   0.00218   0.00218   2.76864
    R3        1.91256  -0.00260   0.00000   0.00199   0.00199   1.91454
    R4        2.06539  -0.00116   0.00000  -0.00187  -0.00187   2.06352
    R5        2.92273  -0.00192   0.00000  -0.00784  -0.00784   2.91488
    R6        2.85145   0.00028   0.00000   0.00442   0.00442   2.85586
    R7        2.06870  -0.00152   0.00000  -0.00284  -0.00284   2.06586
    R8        2.07289  -0.00195   0.00000  -0.00382  -0.00382   2.06906
    R9        2.86717  -0.00202   0.00000  -0.00398  -0.00398   2.86319
   R10        2.47934  -0.02680   0.00000  -0.04832  -0.04858   2.43076
   R11        2.46740  -0.02664   0.00000  -0.04528  -0.04554   2.42186
   R12        3.04422  -0.01725   0.00000  -0.12432  -0.12401   2.92021
   R13        2.65680  -0.00584   0.00000  -0.00877  -0.00877   2.64802
   R14        2.65701  -0.00563   0.00000  -0.00797  -0.00797   2.64904
   R15        2.55828  -0.01070   0.00000  -0.06907  -0.06899   2.48929
   R16        2.05156  -0.00100   0.00000  -0.00150  -0.00150   2.05006
   R17        2.64468  -0.00516   0.00000  -0.00708  -0.00708   2.63760
   R18        2.64266  -0.00521   0.00000  -0.00737  -0.00737   2.63529
   R19        2.05431  -0.00097   0.00000  -0.00167  -0.00167   2.05265
   R20        2.05150  -0.00092   0.00000  -0.00159  -0.00159   2.04991
   R21        2.64454  -0.00571   0.00000  -0.00818  -0.00818   2.63636
   R22        2.64587  -0.00574   0.00000  -0.00800  -0.00800   2.63786
   R23        2.05155  -0.00094   0.00000  -0.00164  -0.00164   2.04992
   R24        2.05119  -0.00096   0.00000  -0.00168  -0.00168   2.04951
   R25        2.56201  -0.01030   0.00000  -0.06746  -0.06739   2.49462
    A1        2.00932  -0.00164   0.00000  -0.04260  -0.04746   1.96186
    A2        1.98306  -0.00019   0.00000  -0.04627  -0.05433   1.92873
    A3        2.02238  -0.00254   0.00000  -0.04844  -0.05327   1.96911
    A4        1.88874   0.00004   0.00000  -0.00423  -0.00424   1.88450
    A5        1.92744  -0.00024   0.00000  -0.00547  -0.00550   1.92194
    A6        1.91367  -0.00080   0.00000   0.00529   0.00530   1.91897
    A7        1.91206  -0.00006   0.00000   0.00073   0.00072   1.91278
    A8        1.87533  -0.00047   0.00000  -0.00393  -0.00392   1.87140
    A9        1.94504   0.00149   0.00000   0.00733   0.00733   1.95237
   A10        1.85248  -0.00015   0.00000  -0.00113  -0.00112   1.85136
   A11        1.88793   0.00018   0.00000   0.00450   0.00449   1.89242
   A12        1.98537   0.00073   0.00000   0.00310   0.00310   1.98846
   A13        1.87802   0.00006   0.00000  -0.00194  -0.00194   1.87608
   A14        1.93291  -0.00069   0.00000  -0.00534  -0.00534   1.92757
   A15        1.92276  -0.00014   0.00000   0.00066   0.00063   1.92340
   A16        2.18918  -0.00288   0.00000  -0.00601  -0.00603   2.18315
   A17        2.20033  -0.00327   0.00000  -0.01072  -0.01077   2.18956
   A18        1.88837   0.00624   0.00000   0.01825   0.01822   1.90659
   A19        2.11313   0.00077   0.00000   0.00277   0.00277   2.11590
   A20        2.09909  -0.00034   0.00000  -0.00075  -0.00075   2.09834
   A21        2.07083  -0.00043   0.00000  -0.00198  -0.00198   2.06885
   A22        2.08238   0.00011   0.00000   0.00130   0.00130   2.08367
   A23        2.10507   0.00023   0.00000   0.00140   0.00140   2.10647
   A24        2.09572  -0.00034   0.00000  -0.00268  -0.00268   2.09303
   A25        2.10859   0.00031   0.00000   0.00131   0.00131   2.10990
   A26        2.08449   0.00007   0.00000   0.00069   0.00069   2.08518
   A27        2.09007  -0.00038   0.00000  -0.00200  -0.00200   2.08808
   A28        2.08949  -0.00001   0.00000  -0.00008  -0.00008   2.08941
   A29        2.09821   0.00009   0.00000   0.00007   0.00007   2.09828
   A30        2.09548  -0.00008   0.00000   0.00001   0.00001   2.09550
   A31        2.09524   0.00000   0.00000   0.00007   0.00007   2.09531
   A32        2.09190   0.00002   0.00000  -0.00020  -0.00020   2.09170
   A33        2.09604  -0.00001   0.00000   0.00012   0.00012   2.09616
   A34        2.08843  -0.00019   0.00000  -0.00087  -0.00087   2.08755
   A35        2.09767   0.00009   0.00000   0.00036   0.00036   2.09803
   A36        2.09709   0.00010   0.00000   0.00050   0.00050   2.09759
   A37        1.79755  -0.01118   0.00000   0.03606   0.03668   1.83423
   A38        3.06099  -0.00049   0.00000   0.00996   0.00995   3.07095
   A39        3.12839  -0.00030   0.00000  -0.00112  -0.00110   3.12729
    D1       -3.13570  -0.00282   0.00000  -0.08349  -0.08151   3.06597
    D2       -1.04290  -0.00301   0.00000  -0.08846  -0.08646  -1.12936
    D3        1.10694  -0.00184   0.00000  -0.07930  -0.07732   1.02962
    D4        0.77386   0.00243   0.00000   0.09889   0.09689   0.87075
    D5        2.86666   0.00223   0.00000   0.09392   0.09194   2.95860
    D6       -1.26668   0.00341   0.00000   0.10307   0.10109  -1.16560
    D7       -0.90411  -0.00013   0.00000   0.00670   0.00669  -0.89742
    D8        1.10710  -0.00005   0.00000   0.00604   0.00603   1.11313
    D9       -3.03383   0.00039   0.00000   0.01227   0.01227  -3.02155
   D10        1.17459  -0.00027   0.00000  -0.00141  -0.00142   1.17317
   D11       -3.09738  -0.00019   0.00000  -0.00207  -0.00208  -3.09946
   D12       -0.95513   0.00025   0.00000   0.00416   0.00417  -0.95096
   D13       -3.03561   0.00003   0.00000  -0.00127  -0.00126  -3.03687
   D14       -1.02439   0.00011   0.00000  -0.00193  -0.00193  -1.02632
   D15        1.11786   0.00055   0.00000   0.00431   0.00432   1.12218
   D16       -1.31896  -0.00093   0.00000  -0.00479  -0.00481  -1.32377
   D17        1.69885   0.00055   0.00000   0.01405   0.01404   1.71289
   D18        2.91528  -0.00028   0.00000  -0.00039  -0.00039   2.91488
   D19       -0.35010   0.00120   0.00000   0.01846   0.01846  -0.33164
   D20        0.82047  -0.00078   0.00000  -0.00311  -0.00310   0.81737
   D21       -2.44490   0.00070   0.00000   0.01573   0.01575  -2.42915
   D22       -1.60600  -0.00048   0.00000  -0.01289  -0.01289  -1.61889
   D23        1.51828  -0.00035   0.00000  -0.01022  -0.01022   1.50806
   D24        2.59260  -0.00029   0.00000  -0.00971  -0.00971   2.58289
   D25       -0.56630  -0.00016   0.00000  -0.00704  -0.00704  -0.57334
   D26        0.51701   0.00016   0.00000  -0.00437  -0.00437   0.51264
   D27       -2.64190   0.00029   0.00000  -0.00170  -0.00170  -2.64360
   D28       -0.01184  -0.00001   0.00000  -0.00117  -0.00117  -0.01302
   D29        3.12303   0.00008   0.00000   0.00171   0.00171   3.12474
   D30       -3.13639  -0.00014   0.00000  -0.00381  -0.00381  -3.14020
   D31       -0.00152  -0.00005   0.00000  -0.00093  -0.00093  -0.00245
   D32       -3.12288  -0.00008   0.00000  -0.00141  -0.00141  -3.12430
   D33        0.02732  -0.00006   0.00000  -0.00114  -0.00114   0.02618
   D34        0.00181   0.00006   0.00000   0.00124   0.00124   0.00304
   D35       -3.13117   0.00008   0.00000   0.00151   0.00151  -3.12967
   D36        3.13943  -0.00002   0.00000  -0.00058  -0.00057   3.13886
   D37        0.00026   0.00000   0.00000  -0.00007  -0.00007   0.00018
   D38       -0.00893   0.00007   0.00000   0.00234   0.00234  -0.00660
   D39        3.13508   0.00009   0.00000   0.00284   0.00284   3.13792
   D40       -0.00082  -0.00003   0.00000  -0.00054  -0.00054  -0.00136
   D41       -3.13749   0.00001   0.00000   0.00015   0.00015  -3.13734
   D42        3.13213  -0.00004   0.00000  -0.00080  -0.00080   3.13133
   D43       -0.00454  -0.00001   0.00000  -0.00011  -0.00011  -0.00465
   D44        0.00076   0.00004   0.00000   0.00079   0.00079   0.00155
   D45        3.13915  -0.00001   0.00000  -0.00021  -0.00021   3.13893
   D46       -3.13841   0.00006   0.00000   0.00129   0.00129  -3.13711
   D47       -0.00002   0.00001   0.00000   0.00029   0.00029   0.00027
   D48       -0.00048  -0.00003   0.00000  -0.00049  -0.00049  -0.00096
   D49       -3.13887   0.00003   0.00000   0.00052   0.00052  -3.13835
   D50        3.13618  -0.00006   0.00000  -0.00118  -0.00118   3.13500
   D51       -0.00221  -0.00001   0.00000  -0.00018  -0.00018  -0.00238
         Item               Value     Threshold  Converged?
 Maximum Force            0.026805     0.000450     NO 
 RMS     Force            0.004619     0.000300     NO 
 Maximum Displacement     0.132332     0.001800     NO 
 RMS     Displacement     0.024687     0.001200     NO 
 Predicted change in Energy=-5.553037D-03
 GradGradGradGradGradGradGradGradGradGradGradGradGradGradGradGradGradGrad

                          Input orientation:                          
 ---------------------------------------------------------------------
 Center     Atomic     Atomic              Coordinates (Angstroms)
 Number     Number      Type              X           Y           Z
 ---------------------------------------------------------------------
    1          7             0       -2.844105   -1.511162   -0.170033
    2          1             0       -3.233306   -1.174380   -1.043897
    3          6             0       -1.614907   -0.806216    0.202317
    4          1             0       -1.302896   -1.168488    1.184052
    5          6             0       -0.505770   -1.091732   -0.830916
    6          6             0       -1.890121    0.673555    0.338108
    7          1             0       -0.460161   -2.179169   -0.933361
    8          1             0       -0.819275   -0.683026   -1.797086
    9          6             0        0.851101   -0.539244   -0.444531
   10          8             0       -2.048246    1.489337   -0.643761
   11          6             0        1.266187    0.730265   -0.868340
   12          6             0        1.714126   -1.290123    0.365680
   13          1             0        0.608639    1.323730   -1.494696
   14          6             0        2.510458    1.236382   -0.489166
   15          6             0        2.957543   -0.786551    0.746549
   16          1             0        1.412380   -2.280683    0.693709
   17          1             0        2.816874    2.220099   -0.828470
   18          6             0        3.359190    0.480368    0.319786
   19          1             0        3.613685   -1.383750    1.370692
   20          1             0        4.327011    0.872848    0.612250
   21          1             0       -3.544928   -1.492152    0.561351
   22          8             0       -2.109824    1.290798    1.439573
   23          1             0       -2.278322    2.164003    0.463986
 ---------------------------------------------------------------------
                    Distance matrix (angstroms):
                    1          2          3          4          5
     1  N    0.000000
     2  H    1.014168   0.000000
     3  C    1.465101   2.075525   0.000000
     4  H    2.079975   2.947927   1.091970   0.000000
     5  C    2.465866   2.737086   1.542489   2.168271   0.000000
     6  C    2.437474   2.670008   1.511258   2.110350   2.529680
     7  H    2.590771   2.951636   2.123254   2.493014   1.093204
     8  H    2.726362   2.576095   2.155416   3.058880   1.094902
     9  C    3.830733   4.176722   2.563373   2.772712   1.515135
    10  O    3.140191   2.942764   2.484590   3.310661   3.012669
    11  C    4.733511   4.889164   3.436245   3.797073   2.541831
    12  C    4.594922   5.145617   3.367984   3.128410   2.529652
    13  H    4.659697   4.604813   3.515775   4.128051   2.741708
    14  C    6.026789   6.253824   4.654997   4.808818   3.825512
    15  C    5.918133   6.456215   4.604767   4.299840   3.817862
    16  H    4.410882   5.081887   3.402938   2.974918   2.723488
    17  H    6.811940   6.940718   5.464594   5.701339   4.691289
    18  C    6.533527   6.932446   5.139138   5.020032   4.328224
    19  H    6.640264   7.263288   5.388582   4.924829   4.679985
    20  H    7.597393   8.005770   6.188190   6.015801   5.412770
    21  H    1.013132   1.665805   2.079518   2.349303   3.366782
    22  O    3.313755   3.675178   2.484594   2.600867   3.661223
    23  H    3.772125   3.785565   3.054634   3.546187   3.926642
                    6          7          8          9         10
     6  C    0.000000
     7  H    3.435033   0.000000
     8  H    2.747012   1.764491   0.000000
     9  C    3.098015   2.155856   2.154120   0.000000
    10  O    1.286301   4.007969   2.749489   3.544156   0.000000
    11  C    3.379498   3.383683   2.684979   1.401273   3.407651
    12  C    4.104556   2.684294   3.385889   1.401810   4.785374
    13  H    3.166338   3.705095   2.481420   2.152280   2.794736
    14  C    4.512898   4.548393   4.059791   2.430701   4.568333
    15  C    5.079230   4.054896   4.554685   2.432474   5.671909
    16  H    4.445276   2.482755   3.706326   2.154816   5.289405
    17  H    5.090039   5.486667   4.752676   3.409641   4.923161
    18  C    5.252896   4.819850   4.826406   2.813236   5.584514
    19  H    5.965786   4.747375   5.493356   3.411758   6.661088
    20  H    6.226363   5.883939   5.891511   3.897787   6.526984
    21  H    2.734687   3.495990   3.694062   4.609219   3.547059
    22  O    1.281594   4.515847   4.004679   3.958027   2.093678
    23  H    1.545309   4.911357   3.917504   4.233938   1.317275
                   11         12         13         14         15
    11  C    0.000000
    12  C    2.409444   0.000000
    13  H    1.084846   3.393424   0.000000
    14  C    1.395757   2.783547   2.153053   0.000000
    15  C    2.787343   1.394537   3.872185   2.412288   0.000000
    16  H    3.395169   1.086215   4.292657   3.869717   2.150058
    17  H    2.150773   3.868295   2.474599   1.084766   3.397119
    18  C    2.419660   2.417225   3.401343   1.395101   1.395897
    19  H    3.872088   2.151079   4.956934   3.397245   1.084768
    20  H    3.403105   3.400942   4.297535   2.155259   2.155709
    21  H    5.489078   5.266569   5.422973   6.724298   6.543264
    22  O    4.127724   4.736770   4.000132   5.006995   5.520314
    23  H    4.048980   5.280178   3.588458   4.970050   6.016634
                   16         17         18         19         20
    16  H    0.000000
    17  H    4.954459   0.000000
    18  C    3.399012   2.153895   0.000000
    19  H    2.471545   4.296387   2.155019   0.000000
    20  H    4.294935   2.484205   1.084553   2.485216   0.000000
    21  H    5.021375   7.495661   7.184430   7.205034   8.219686
    22  O    5.071263   5.502724   5.640995   6.317950   6.503229
    23  H    5.781806   5.256863   5.885317   6.937175   6.731975
                   21         22         23
    21  H    0.000000
    22  O    3.252016   0.000000
    23  H    3.870560   1.320094   0.000000
 Stoichiometry    C9H11NO2
 Framework group  C1[X(C9H11NO2)]
 Deg. of freedom    63
 Full point group                 C1
 Largest Abelian subgroup         C1      NOp   1
 Largest concise Abelian subgroup C1      NOp   1
                         Standard orientation:                         
 ---------------------------------------------------------------------
 Center     Atomic     Atomic              Coordinates (Angstroms)
 Number     Number      Type              X           Y           Z
 ---------------------------------------------------------------------
    1          7             0       -2.847670   -1.495238   -0.175026
    2          1             0       -3.234744   -1.155881   -1.048839
    3          6             0       -1.616327   -0.795231    0.199546
    4          1             0       -1.306647   -1.159944    1.181116
    5          6             0       -0.507151   -1.083360   -0.832919
    6          6             0       -1.886343    0.685339    0.337044
    7          1             0       -0.465357   -2.170817   -0.936781
    8          1             0       -0.818173   -0.672230   -1.798863
    9          6             0        0.851300   -0.536291   -0.444384
   10          8             0       -2.040502    1.503003   -0.643889
   11          6             0        1.271403    0.732280   -0.866053
   12          6             0        1.710767   -1.291365    0.365710
   13          1             0        0.616653    1.328954   -1.492291
   14          6             0        2.517096    1.233395   -0.484909
   15          6             0        2.955595   -0.792794    0.748546
   16          1             0        1.405109   -2.281269    0.692092
   17          1             0        2.827411    2.216455   -0.822570
   18          6             0        3.362253    0.473239    0.323904
   19          1             0        3.608928   -1.393194    1.372564
   20          1             0        4.331178    0.861831    0.617900
   21          1             0       -3.549182   -1.474681    0.555655
   22          8             0       -2.104966    1.301891    1.439110
   23          1             0       -2.269297    2.177007    0.464525
 ---------------------------------------------------------------------
 Rotational constants (GHZ):      1.7044364      0.5819261      0.5098429
 Standard basis: 6-311++G(d,p) (5D, 7F)
 There are   341 symmetry adapted basis functions of A   symmetry.
 Integral buffers will be    262144 words long.
 Raffenetti 2 integral format.
 Two-electron integral symmetry is turned on.
   341 basis functions,   531 primitive gaussians,   353 cartesian basis functions
    44 alpha electrons       44 beta electrons
       nuclear repulsion energy       678.8639432354 Hartrees.
 NAtoms=   23 NActive=   23 NUniq=   23 SFac= 7.50D-01 NAtFMM=   80 NAOKFM=F Big=F
 One-electron integrals computed using PRISM.
 NBasis=   341 RedAO= T  NBF=   341
 NBsUse=   340 1.00D-06 NBFU=   340
 Initial guess read from the read-write file:
 Initial guess orbital symmetries:
       Occupied  (A) (A) (A) (A) (A) (A) (A) (A) (A) (A) (A) (A)
                 (A) (A) (A) (A) (A) (A) (A) (A) (A) (A) (A) (A)
                 (A) (A) (A) (A) (A) (A) (A) (A) (A) (A) (A) (A)
                 (A) (A) (A) (A) (A) (A) (A) (A)
       Virtual   (A) (A) (A) (A) (A) (A) (A) (A) (A) (A) (A) (A)
                 (A) (A) (A) (A) (A) (A) (A) (A) (A) (A) (A) (A)
                 (A) (A) (A) (A) (A) (A) (A) (A) (A) (A) (A) (A)
                 (A) (A) (A) (A) (A) (A) (A) (A) (A) (A) (A) (A)
                 (A) (A) (A) (A) (A) (A) (A) (A) (A) (A) (A) (A)
                 (A) (A) (A) (A) (A) (A) (A) (A) (A) (A) (A) (A)
                 (A) (A) (A) (A) (A) (A) (A) (A) (A) (A) (A) (A)
                 (A) (A) (A) (A) (A) (A) (A) (A) (A) (A) (A) (A)
                 (A) (A) (A) (A) (A) (A) (A) (A) (A) (A) (A) (A)
                 (A) (A) (A) (A) (A) (A) (A) (A) (A) (A) (A) (A)
                 (A) (A) (A) (A) (A) (A) (A) (A) (A) (A) (A) (A)
                 (A) (A) (A) (A) (A) (A) (A) (A) (A) (A) (A) (A)
                 (A) (A) (A) (A) (A) (A) (A) (A) (A) (A) (A) (A)
                 (A) (A) (A) (A) (A) (A) (A) (A) (A) (A) (A) (A)
                 (A) (A) (A) (A) (A) (A) (A) (A) (A) (A) (A) (A)
                 (A) (A) (A) (A) (A) (A) (A) (A) (A) (A) (A) (A)
                 (A) (A) (A) (A) (A) (A) (A) (A) (A) (A) (A) (A)
                 (A) (A) (A) (A) (A) (A) (A) (A) (A) (A) (A) (A)
                 (A) (A) (A) (A) (A) (A) (A) (A) (A) (A) (A) (A)
                 (A) (A) (A) (A) (A) (A) (A) (A) (A) (A) (A) (A)
                 (A) (A) (A) (A) (A) (A) (A) (A) (A) (A) (A) (A)
                 (A) (A) (A) (A) (A) (A) (A) (A) (A) (A) (A) (A)
                 (A) (A) (A) (A) (A) (A) (A) (A) (A) (A) (A) (A)
                 (A) (A) (A) (A) (A) (A) (A) (A) (A) (A) (A) (A)
                 (A) (A) (A) (A) (A) (A) (A) (A)
 Harris functional with IExCor=  402 diagonalized for initial guess.
 ExpMin= 3.60D-02 ExpMax= 8.59D+03 ExpMxC= 1.30D+03 IAcc=3 IRadAn=         5 AccDes= 0.00D+00
 HarFok:  IExCor= 402 AccDes= 0.00D+00 IRadAn=         5 IDoV=1
 ScaDFX=  1.000000  1.000000  1.000000  1.000000
 Requested convergence on RMS density matrix=1.00D-08 within 128 cycles.
 Requested convergence on MAX density matrix=1.00D-06.
 Requested convergence on             energy=1.00D-06.
 No special actions if energy rises.
 SCF Done:  E(RB+HF-LYP) =  -554.902540275     A.U. after   13 cycles
             Convg  =    0.3872D-08             -V/T =  2.0043
             S**2   =   0.0000
 ***** Axes restored to original set *****
 -------------------------------------------------------------------
 Center     Atomic                   Forces (Hartrees/Bohr)
 Number     Number              X              Y              Z
 -------------------------------------------------------------------
    1          7           0.003319203   -0.003625115    0.000120583
    2          1          -0.001078350    0.001225471    0.001458892
    3          6          -0.000201385   -0.000087555   -0.000807166
    4          1          -0.000259124    0.000128332   -0.000231898
    5          6          -0.000294306    0.000449116    0.000112769
    6          6          -0.005330223    0.014077728    0.001432228
    7          1           0.000149475    0.000470113   -0.000052129
    8          1           0.000228297   -0.000256598    0.000484340
    9          6           0.000842135    0.000265909    0.000358625
   10          8           0.000955146   -0.004079605    0.006925608
   11          6           0.000790528   -0.001018663    0.000797361
   12          6           0.000193175    0.001316916   -0.000477155
   13          1           0.000297742   -0.000142231    0.000075038
   14          6          -0.000296507   -0.001209867    0.000420461
   15          6          -0.000731548    0.000744448   -0.000732126
   16          1           0.000155629    0.000248522   -0.000071926
   17          1          -0.000066568   -0.000257667    0.000098473
   18          6          -0.001189995   -0.000479779   -0.000348462
   19          1          -0.000166796    0.000144463   -0.000179592
   20          1          -0.000257338   -0.000113254   -0.000078231
   21          1          -0.000636579    0.002103161   -0.001238668
   22          8           0.001728206   -0.002838282   -0.007436203
   23          1           0.001849181   -0.007065560   -0.000630824
 -------------------------------------------------------------------
 Cartesian Forces:  Max     0.014077728 RMS     0.002587846

 GradGradGradGradGradGradGradGradGradGradGradGradGradGradGradGradGradGrad
 Berny optimization.
 Internal  Forces:  Max     0.006436955 RMS     0.001202640
 Search for a saddle point.
 Step number   2 out of a maximum of 125
 All quantities printed in internal units (Hartrees-Bohrs-Radians)
 Swaping is turned off.
 Update second derivatives using D2CorX and points  1  2
     Eigenvalues ---   -0.10499   0.00161   0.00197   0.00316   0.00489
     Eigenvalues ---    0.01038   0.01611   0.01704   0.01724   0.02065
     Eigenvalues ---    0.02332   0.02432   0.02617   0.02783   0.02837
     Eigenvalues ---    0.03086   0.04150   0.04281   0.04665   0.05070
     Eigenvalues ---    0.05604   0.05665   0.07432   0.07713   0.10717
     Eigenvalues ---    0.11280   0.11340   0.11733   0.12170   0.12358
     Eigenvalues ---    0.12585   0.13860   0.14589   0.17380   0.18594
     Eigenvalues ---    0.19082   0.19294   0.19575   0.20561   0.20710
     Eigenvalues ---    0.25444   0.27063   0.27997   0.30360   0.32622
     Eigenvalues ---    0.33030   0.33450   0.34887   0.35151   0.35278
[...]
 328,0.05108362,0.00838191,0.01883197,0.58878031,-0.00004444,-0.0000228
 0,0.00028360,0.00001074,0.00002452,-0.00000009,-0.00057984,-0.00061792
 ,0.00028612,-0.00012810,-0.00012962,0.00017715,0.00151290,-0.00027041,
 0.00437448,0.00045093,-0.00006429,-0.00024116,0.00006303,-0.00005809,-
 0.00002821,0.00117596,0.00052854,0.00076135,0.00190333,0.05180049,-0.0
 2577081,-0.00007397,0.00003749,0.00001376,-0.03280271,-0.03686632,-0.0
 0021857,-0.05351489,-0.14139396,0.01664232,-0.00049983,-0.00067096,-0.
 00053223,0.04527140,-0.02907295,0.04605250,0.07693324,0.57306782,-0.00
 020890,-0.00012325,0.00045502,0.00010918,0.00000967,-0.00000881,-0.000
 57291,-0.00015940,-0.00083954,-0.00020835,-0.00003949,0.00023779,-0.00
 321256,0.00411790,0.00194996,0.00004079,0.00012887,-0.00038830,0.00032
 674,0.00028821,-0.00006487,-0.00030624,-0.00002247,0.00002596,-0.02325
 469,-0.00434529,-0.00348227,-0.00003115,-0.00016115,0.00031067,0.00335
 594,-0.00002758,-0.00408789,-0.08799185,-0.01111112,-0.10337922,0.0005
 8779,-0.00056325,-0.00038440,-0.00248285,0.02599406,-0.00859714,0.2037
 7865,-0.20990602,0.36587790,0.00006901,-0.00007163,0.00014935,0.000030
 12,-0.00000595,-0.00000119,-0.00032323,0.00021559,-0.00034178,-0.00016
 443,0.00011240,0.00011894,-0.00012848,0.00131792,0.00136998,0.00007238
 ,0.00023536,0.00002550,0.00017500,0.00002538,-0.00018270,0.00021713,-0
 .00012554,0.00012372,0.00873572,0.01618549,-0.00621486,-0.00000177,-0.
 00017704,0.00005423,-0.00071802,0.00093152,-0.00460837,-0.07831001,-0.
 07533598,0.01938226,0.00041697,0.00087379,-0.00039862,-0.00091879,0.00
 042545,-0.00019105,-0.00421017,-0.02609844,0.01092252,0.07876549,0.000
 08367,0.00012455,-0.00038085,-0.00008537,-0.00001006,0.00000366,0.0004
 1319,0.00004064,0.00066999,0.00035874,-0.00004212,-0.00028749,-0.00011
 255,-0.00005134,-0.00200175,-0.00008649,-0.00029307,0.00011378,0.00054
 105,0.00022947,0.00032753,-0.00018265,0.00020810,-0.00002228,-0.007369
 41,-0.01187233,0.00436094,0.00004848,0.00024794,-0.00019049,0.00169357
 ,0.00150393,0.00377338,-0.07555551,-0.26985685,0.09027628,-0.00039537,
 -0.00057285,0.00034343,0.00050028,0.00029689,-0.00049341,-0.00129470,-
 0.00662770,0.00503499,0.08382125,0.28490354,0.00005879,-0.00004466,-0.
 00018931,-0.00003708,0.00002428,-0.00000007,0.00001299,-0.00004217,0.0
 0033783,0.00003678,0.00004583,0.00003135,0.00255674,-0.00013656,-0.001
 31417,0.00011741,0.00028696,0.00005050,-0.00045153,-0.00090192,-0.0001
 4470,-0.00009286,-0.00032253,-0.00003032,0.00607734,0.01729831,-0.0031
 6898,-0.00002763,-0.00013634,-0.00003985,-0.00489992,0.00375935,0.0018
 4988,0.01972475,0.08980038,-0.07596834,0.00036631,0.00095378,-0.000120
 83,-0.00032857,-0.00053294,-0.00087626,-0.00309895,-0.00845916,0.00628
 372,-0.01812989,-0.10058223,0.07145874,-0.00014294,0.00003436,0.000103
 10,0.00001865,-0.00002337,-0.00000974,0.00006581,-0.00015430,-0.000192
 11,0.00000570,0.00000810,0.00000918,0.00001404,-0.00107702,0.00051096,
 0.00002668,-0.00029703,0.00000404,-0.00035377,-0.00013623,-0.00004975,
 0.00003127,0.00004365,0.00000218,-0.00308831,-0.00230150,-0.00422546,-
 0.00000107,0.00019252,-0.00003105,-0.00411782,-0.02575577,0.01096028,-
 0.00101361,0.00050138,-0.00032255,0.00006672,0.00131439,0.00152656,-0.
 08036553,-0.07856941,0.02192649,-0.00041041,0.00084651,-0.00466158,-0.
 00012525,0.00015245,0.00043002,0.07968323,-0.00012382,-0.00001507,0.00
 003975,0.00000924,0.00000220,0.00000032,0.00003265,-0.00004790,-0.0000
 9946,-0.00000123,0.00000108,-0.00000730,0.00027145,-0.00030388,0.00038
 230,0.00005487,-0.00015650,-0.00001463,-0.00010504,-0.00006254,-0.0000
 0287,-0.00001250,0.00001956,-0.00002775,-0.00310068,0.00256590,0.00111
 697,-0.00002585,0.00008890,-0.00001157,-0.00130033,-0.00628571,0.00488
 710,0.00044027,0.00039201,-0.00055078,0.00071152,-0.00020844,-0.001855
 93,-0.07860047,-0.27054762,0.09339554,0.00148793,0.00150298,0.00413806
 ,0.00016990,-0.00028696,-0.00037207,0.08640337,0.28430389,-0.00003573,
 -0.00002130,-0.00001917,-0.00000621,0.00000907,0.00000634,-0.00003350,
 0.00004489,-0.00001763,-0.00001213,-0.00000566,-0.00001257,0.00003810,
 -0.00030538,0.00032460,0.00001035,0.00003405,0.00013542,-0.00000016,-0
 .00004743,-0.00001843,0.00001123,0.00001701,-0.00004282,-0.00412799,0.
 00115693,0.00441682,0.00003303,-0.00001303,-0.00009461,-0.00322505,-0.
 00834327,0.00642298,-0.00035599,-0.00054084,-0.00088024,0.00179439,-0.
 00152568,-0.00217262,0.02191539,0.09344167,-0.07933126,-0.00504881,0.0
 0382803,0.00221757,0.00041906,-0.00035443,-0.00064114,-0.02070630,-0.1
 0377063,0.07463600,-0.00025270,-0.00001763,0.00024367,0.00003750,-0.00
 001035,-0.00000216,0.00020168,-0.00025349,-0.00062238,0.00000061,-0.00
 004128,0.00008020,-0.00076015,0.00020573,0.00067386,0.00012480,-0.0005
 2285,-0.00033849,-0.00005155,0.00004411,-0.00010905,0.00007620,-0.0000
 9236,0.00011335,-0.00203696,0.01063468,-0.00386263,-0.00006294,0.00023
 752,0.00018165,-0.03447816,0.00237834,-0.02446799,-0.00484272,-0.03166
 673,0.01152490,-0.00267026,-0.00380915,-0.00334320,-0.18666107,0.07443
 199,-0.11096616,-0.13637718,-0.09359189,0.01396276,-0.00330818,-0.0032
 3223,-0.00394442,0.00953028,-0.00702523,0.00751494,0.62612403,-0.00017
 199,0.00014406,-0.00018635,-0.00007234,-0.00003490,0.00000901,-0.00007
 069,0.00046273,-0.00043770,0.00028575,0.00000117,-0.00037274,-0.000302
 29,-0.00166836,0.00040016,-0.00047793,-0.00034699,0.00020504,-0.000297
 95,0.00053023,-0.00000002,-0.00008946,0.00000146,-0.00040548,0.0114915
 5,-0.04750011,0.02996914,0.00011277,0.00015642,0.00000248,0.03880158,0
 .05182517,-0.00402283,-0.06859166,-0.01127878,-0.02714909,-0.00435234,
 0.00140620,0.00099103,0.02420790,-0.17045369,0.07592866,-0.04292589,-0
 .27371135,0.09771987,-0.00241058,0.00252115,0.00138408,0.01735305,-0.0
 1026134,0.01746742,0.12750010,0.55835856,0.00002800,-0.00006032,0.0001
 6369,0.00005073,0.00001265,-0.00000454,0.00027643,-0.00031056,0.000104
 30,-0.00014906,-0.00000755,0.00022021,0.00014472,0.00031629,-0.0009807
 7,0.00037525,-0.00003388,-0.00055896,-0.00004184,-0.00031967,-0.000157
 69,-0.00001733,-0.00012115,0.00024297,-0.00371859,0.02973854,-0.025825
 89,-0.00025538,0.00000311,0.00026548,-0.04581310,-0.02451529,-0.003511
 25,0.03255111,-0.00643572,0.02952260,-0.00286827,0.00134317,0.00489718
 ,-0.08166507,0.10313317,-0.16813722,-0.01501966,0.07067957,-0.11189384
 ,-0.00444977,0.00094512,0.00449220,-0.00679177,0.00413322,-0.00265982,
 0.19584467,-0.17631622,0.34286526,-0.00011662,-0.00002533,0.00009742,0
 .00003745,-0.00000835,-0.00000896,0.00007131,-0.00002913,-0.00020598,-
 0.00002193,0.00000508,0.00001864,-0.00029988,0.00090094,-0.00085368,0.
 00001397,-0.00014797,-0.00013942,0.00003824,-0.00000214,0.00002720,-0.
 00044496,-0.00011046,-0.00008669,-0.00246285,-0.00439169,-0.00274021,-
 0.00002630,0.00006270,0.00010310,-0.00049749,-0.00066383,0.00062439,-0
 .01172696,0.01679740,-0.01766986,-0.00017297,0.00029046,0.00030615,0.0
 0157924,-0.00332564,-0.00106420,-0.14769290,0.08034994,-0.10649842,0.0
 0005050,0.00069042,0.00186150,0.00030079,-0.00039595,0.00031557,0.0092
 3587,-0.00644330,0.00690173,0.15227769,-0.00000321,-0.00001564,0.00001
 249,0.00000660,-0.00000087,0.00000424,0.00001747,-0.00001915,-0.000039
 37,-0.00000161,0.00001170,0.00002826,-0.00026847,0.00042980,-0.0002701
 5,0.00001238,-0.00000876,0.00006813,0.00004013,-0.00003300,0.00000353,
 -0.00008605,-0.00004242,-0.00007889,-0.00388569,0.00154981,0.00130254,
 0.00001570,0.00001863,-0.00005688,-0.00071835,-0.00069121,-0.00055588,
 -0.00782397,0.00940458,-0.00776025,0.00027442,-0.00017011,-0.00035667,
 -0.00397167,-0.00290197,0.00359257,0.08038417,-0.13188828,0.09816294,0
 .00132195,-0.00014781,-0.00156572,0.00085036,-0.00058547,0.00091485,0.
 01815564,-0.00974082,0.01732330,-0.08495318,0.13481875,-0.00007927,-0.
 00004127,0.00003043,0.00001168,0.00000494,0.00000978,0.00004948,-0.000
 02869,-0.00010019,0.00002547,0.00000455,0.00000901,0.00003777,0.000484
 29,-0.00003942,0.00004622,-0.00006551,-0.00000562,-0.00000213,-0.00005
 115,0.00000814,-0.00004295,-0.00003218,-0.00007695,-0.00344205,0.00115
 903,0.00495528,-0.00002972,0.00003402,-0.00000798,0.00054521,-0.000620
 29,-0.00029929,-0.00351861,0.00539103,-0.00181327,0.00030826,-0.000360
 37,-0.00068254,-0.00061838,0.00391062,0.00451342,-0.10659964,0.0980090
 6,-0.15062178,0.00153633,-0.00184662,-0.00223113,-0.00040176,0.0002048
 1,-0.00018949,-0.00715322,0.00418375,-0.00297379,0.11763386,-0.1087983
 8,0.15160699,-0.00007350,-0.00001203,0.00003426,0.00001222,0.00000074,
 -0.00000140,0.00003632,-0.00004584,-0.00002998,-0.00000174,-0.00000178
 ,-0.00000023,-0.00026235,0.00014261,0.00029362,0.00004180,-0.00007052,
 -0.00015623,0.00001561,0.00004101,-0.00000126,0.00003046,0.00000353,0.
 00002954,0.00039784,0.00059732,0.00035273,-0.00006118,0.00002602,0.000
 10094,0.00099282,0.00153181,-0.00429801,0.00249866,-0.00268952,-0.0009
 3274,-0.00062490,-0.00048977,-0.00018287,-0.01196531,-0.00863180,-0.00
 322856,-0.00477389,-0.00110205,-0.00362382,-0.00031425,-0.00003369,-0.
 00025743,-0.00004210,0.00115466,0.00150663,-0.27375725,-0.09355237,-0.
 07540163,-0.00011291,0.00064535,0.00171696,0.28797495,-0.00000810,0.00
 000656,-0.00003771,-0.00000446,-0.00000063,0.00000175,0.00006048,0.000
 03749,0.00003239,0.00003611,-0.00000329,-0.00003746,0.00028528,-0.0000
 7333,-0.00039080,-0.00001598,-0.00005361,0.00005235,0.00002431,-0.0000
 1750,0.00006512,-0.00009994,0.00003910,-0.00006691,0.00049741,-0.00102
 304,0.00036255,0.00000840,0.00003817,-0.00004568,0.00089409,0.00025393
 ,0.00455547,-0.00200646,-0.00299425,0.00469704,0.00073112,0.00033867,0
 .00033009,0.01584173,0.00974939,0.00479115,-0.02564182,-0.00543934,-0.
 00906447,-0.00129539,-0.00042815,-0.00035944,0.00049896,-0.00018012,-0
 .00195809,-0.09355966,-0.09068656,-0.01948668,0.00131637,0.00003176,-0
 .00156521,0.10243703,0.09038133,0.00001792,-0.00002914,-0.00003560,0.0
 0000368,0.00000590,0.00000346,0.00006404,0.00006240,0.00002933,-0.0000
 0520,0.00000632,0.00000082,0.00053854,-0.00034226,-0.00051364,0.000005
 01,0.00009126,-0.00004865,-0.00006464,-0.00015885,0.00006019,-0.000004
 10,0.00006645,-0.00000968,0.00019758,0.00031793,-0.00094247,-0.0000613
 0,-0.00003660,0.00004470,-0.00386953,0.00494870,0.00221803,-0.00128094
 ,0.00434539,0.00384769,-0.00090218,-0.00036533,-0.00012490,-0.01750802
 ,-0.00846530,-0.00153016,0.01056419,0.00414710,0.00635078,0.00044585,0
 .00030199,0.00026018,0.00188223,-0.00160206,-0.00204448,-0.07540883,-0
 .01948934,-0.06613869,0.00132931,-0.00191309,-0.00209442,0.08403081,0.
 01813319,0.06066987,-0.23798520,0.00050367,0.18387437,0.01170409,0.001
 53020,-0.01274056,-0.01953380,0.00592831,0.02329752,0.00052156,0.00068
 289,-0.00032226,-0.00522485,-0.00348419,-0.00371367,0.00031157,-0.0006
 2477,0.00103453,0.00034734,-0.00015232,-0.00043873,0.00028464,-0.00014
 717,0.00001483,-0.00039925,0.00041683,0.00176110,0.00007508,0.00029828
 ,-0.00052048,-0.00034361,0.00000286,-0.00021210,-0.00012561,-0.0002064
 3,0.00002600,-0.00003343,0.00001716,0.00009332,0.00004162,-0.00013188,
 -0.00009211,0.00003381,-0.00002302,-0.00011257,-0.00002780,0.00009428,
 0.00004791,-0.00004297,-0.00002652,-0.00000779,-0.00008603,-0.00002882
 ,-0.00000395,-0.00003756,-0.00000422,-0.00001398,-0.00001549,0.0000085
 0,0.00001386,0.25063273,0.03367325,-0.01283033,-0.03752996,-0.01101049
 ,-0.00272241,0.01329158,-0.01601923,-0.00675565,0.01152154,0.00079255,
 0.00071955,-0.00010265,-0.00027324,-0.00114793,-0.00120323,-0.00287650
 ,0.00033942,0.00217298,-0.00022605,0.00044495,0.00009458,0.00006256,-0
 .00009141,-0.00016827,-0.00038715,0.00086036,0.00000289,0.00074360,-0.
 00039183,-0.00040988,0.00018086,0.00002943,0.00007161,0.00000382,0.000
 05564,0.00000896,-0.00003596,-0.00001317,0.00005637,0.00003006,0.00000
 930,-0.00003126,-0.00001554,-0.00008062,-0.00003226,-0.00001405,-0.000
 01529,0.00002021,0.00001230,0.00001158,0.00000954,-0.00000729,0.000033
 15,-0.00001801,0.00001886,-0.00000475,0.00000435,0.00000552,0.00000419
 ,0.00001291,-0.00478724,0.02115996,0.18025068,-0.00372560,-0.25224903,
 0.02603722,-0.00594123,-0.02226959,-0.01115048,-0.00227331,0.01018366,
 -0.00007647,0.00037836,0.00050055,-0.00150853,-0.00099004,-0.00013048,
 -0.00098784,0.00054661,0.00113858,-0.00012411,0.00006787,-0.00017391,-
 0.00019037,-0.00018479,0.00031979,-0.00050411,0.00003497,0.00067439,-0
 .00010856,-0.00016391,-0.00033557,-0.00006602,-0.00004155,-0.00005316,
 0.00006304,-0.00001226,0.00000964,-0.00000645,0.00000650,0.00000521,0.
 00005589,0.00000241,-0.00004044,0.00001116,-0.00006270,-0.00001290,-0.
 00001220,0.00003831,0.00002548,-0.00000565,-0.00000470,0.00000498,-0.0
 0005928,0.00000149,-0.00002889,-0.00000767,0.00000578,-0.00000505,-0.0
 0000504,0.00000351,0.00000260,-0.19202363,0.01222713,0.26278654,0.0012
 4478,0.00476242,0.00178444,0.00014694,0.00018834,-0.00009372,0.0136180
 3,-0.00041422,0.00385050,-0.00000647,-0.00120263,0.00025977,-0.0012017
 1,-0.00163067,0.00046901,-0.08199875,0.02107968,0.00381567,0.00043069,
 0.00022415,-0.00031667,-0.00006187,0.00017303,0.00027454,-0.00052812,0
 .00002908,0.00035726,0.05199575,-0.00982386,-0.03057395,-0.00015040,0.
 00056602,-0.00013181,0.00006229,-0.00006844,0.00030967,-0.00005949,-0.
 00013230,0.00008290,0.00013717,0.00002305,0.00007453,0.00010227,-0.000
 05079,0.00005891,0.00002046,-0.00002829,-0.00004455,0.00000720,-0.0000
 2062,-0.00003291,0.00007908,0.00006937,0.00006799,0.00000842,-0.000000
 49,-0.00002268,0.00000004,-0.00001561,-0.00000425,-0.00004596,0.000361
 60,0.00023803,0.05376576,-0.00061530,-0.00413249,-0.00207111,-0.000392
 98,-0.00099576,0.00005899,0.00600144,-0.00602323,-0.03473820,-0.001101
 25,0.00353321,-0.00054448,-0.00189869,-0.00693679,0.00117500,0.0214223
 1,-0.19781750,-0.09922374,0.00177297,-0.00039415,-0.00184207,0.0002117
 3,-0.00003596,-0.00085688,-0.00151222,-0.00052480,-0.00053656,-0.00533
 653,0.09321586,0.07021846,0.00021749,-0.00002619,0.00057669,0.00042077
 ,0.00014371,0.00016447,0.00007075,-0.00004578,-0.00027558,0.00015488,0
 .00025239,0.00014343,-0.00021477,-0.00002647,-0.00005893,-0.00010802,0
 .00014350,-0.00010365,0.00014573,0.00007253,-0.00006022,0.00026468,0.0
 0022636,0.00004427,0.00006528,-0.00000975,0.00002838,0.00006240,0.0000
 1596,-0.00003149,0.00037804,0.00064841,0.00004107,-0.00953790,0.138106
 00,0.00092353,-0.00273142,0.00116832,0.00090493,0.00142281,0.00076603,
 -0.00221823,-0.00150252,-0.00349373,0.00072696,-0.00246079,0.00142336,
 -0.00078535,-0.00071292,0.00017017,0.01647071,-0.15169938,-0.41067369,
 0.00060623,-0.00027273,0.00028776,-0.00048742,0.00034851,0.00145137,-0
 .00075199,-0.00025456,0.00010432,-0.01193938,-0.00708094,-0.17676820,-
 0.00015655,0.00094448,-0.00081385,0.00014425,0.00013808,0.00034248,-0.
 00050918,-0.00031343,0.00054356,0.00007334,-0.00029157,0.00020301,0.00
 027924,-0.00002636,0.00025081,0.00000454,-0.00013756,-0.00010311,0.000
 02198,0.00001953,-0.00009618,0.00025136,0.00008950,0.00025619,0.000125
 93,-0.00005869,0.00000687,0.00012144,-0.00003679,0.00001640,-0.0002620
 5,-0.00042713,-0.00068687,-0.00295082,0.15745990,0.60229182,0.00035497
 ,0.00232717,0.00093205,0.00007177,-0.00011527,-0.00012675,0.00767732,0
 .00024397,-0.00167689,-0.00016104,0.00026220,-0.00021721,-0.00000006,-
 0.00096365,-0.00005899,0.02040170,0.02876219,0.01474150,0.00015601,-0.
 00003881,-0.00033840,0.00003927,-0.00000699,-0.00018193,0.00007697,0.0
 0012871,0.00002175,-0.03987801,0.00474880,0.00566788,0.00003224,-0.000
 21401,-0.00010843,-0.00002591,0.00000324,-0.00004713,-0.00002409,0.000
 11462,0.00020566,-0.00008857,-0.00008449,-0.00007784,0.00000624,-0.000
 00800,0.00002260,-0.00000242,-0.00002113,0.00002228,-0.00004659,0.0000
 0238,0.00003389,-0.00006490,-0.00003444,-0.00004521,-0.00000014,-0.000
 00725,0.00001315,0.00000416,0.00000763,0.00001599,-0.00005089,-0.00023
 225,0.00018039,-0.03756609,-0.01047079,-0.00059345,0.04908807,-0.00044
 307,0.00076479,0.00009970,-0.00004020,-0.00004912,-0.00023069,0.003324
 61,0.00056485,0.00088195,0.00018246,-0.00072094,0.00043105,-0.00032003
 ,-0.00038867,0.00018722,0.02813373,-0.10174861,-0.02997695,0.00000634,
 0.00002774,-0.00028025,-0.00001251,0.00001022,-0.00014280,-0.00006053,
 0.00002161,0.00005169,-0.00158119,-0.03701877,-0.01259143,-0.00007563,
 0.00000250,0.00002326,0.00001869,-0.00003786,0.00010219,0.00009000,0.0
 0008265,-0.00003698,0.00007074,0.00007495,-0.00000371,-0.00001654,-0.0
 0002075,0.00002013,0.00000663,-0.00001518,-0.00001380,-0.00004252,-0.0
 0001909,0.00002250,-0.00002266,0.00001624,-0.00004736,-0.00000049,-0.0
 0000501,-0.00000916,-0.00001862,0.00000327,-0.00000607,-0.00024444,-0.
 00026255,0.00004607,-0.00455093,-0.01938907,0.00758399,-0.02440385,0.1
 5810679,-0.00069727,0.00003922,-0.00164079,-0.00079574,-0.00156208,-0.
 00039629,-0.00034233,0.00138550,-0.00825094,-0.00083932,0.00377394,-0.
 00043274,0.00008558,-0.00126006,0.00025189,0.01503179,-0.03249532,0.14
 856392,0.00008512,0.00006813,-0.00067414,0.00054147,-0.00050996,-0.001
 28342,0.00020416,0.00016917,-0.00022713,-0.01768403,0.08570757,0.00364
 582,0.00013853,-0.00062360,0.00065316,-0.00001130,-0.00005585,-0.00013
 533,0.00030291,0.00020170,-0.00042981,0.00002806,0.00022374,-0.0000772
 4,-0.00023919,-0.00000974,-0.00019920,-0.00002183,0.00010771,0.0000383
 5,0.00002072,0.00000216,0.00005577,-0.00011356,0.00002814,-0.00015873,
 -0.00006971,0.00003535,0.00000100,-0.00006774,0.00002465,-0.00002134,0
 .00030047,0.00042799,0.00033449,0.02252813,-0.08956777,-0.01664683,-0.
 01838490,0.03388943,-0.12297049||0.00000009,0.00000014,0.00000228,-0.0
 0000002,-0.00000170,-0.00000006,-0.00000016,0.00000042,0.00000006,0.00
 000020,0.00000169,0.00000105,0.00000142,-0.00000162,0.00000097,-0.0000
 0202,0.00000542,-0.00000229,0.00000043,-0.00000127,0.00000197,0.000000
 49,-0.00000189,0.00000070,0.00000004,-0.00000060,0.00000022,0.00000159
 ,-0.00000195,0.00000365,0.00000027,-0.00000167,-0.00000106,-0.00000035
 ,0.00000107,0.00000273,0.00000026,-0.00000174,-0.00000196,0.00000007,-
 0.00000025,-0.00000108,-0.00000026,0.00000149,0.00000187,-0.00000019,0
 .00000113,0.00000312,0.00000005,-0.00000092,-0.00000225,-0.00000023,0.
 00000075,0.00000014,-0.00000045,0.00000242,0.00000275,-0.00000039,0.00
 000131,-0.00000006,-0.00000046,-0.00000014,0.00000012,-0.00000194,0.00
 000412,-0.00000855,0.00000157,-0.00000621,-0.00000430|||@


 THOUGH I SPEAK WITH THE TONGUES OF MEN AND OF ANGELS, 
 AND HAVE NOT LOVE,
 I AM BECOME AS SOUNDING BRASS, A TINKLING CYMBAL.
 AND THOUGH I HAVE THE GIFT OF PROPHECY,
 AND UNDERSTAND ALL MYSTERIES, AND ALL KNOWLEDGE.
 AND THOUGH I HAVE ALL FAITH, SO THAT I COULD REMOVE MOUNTAINS,
 AND HAVE NOT LOVE, I AM NOTHING.
 AND THOUGH I BESTOW ALL MY GOODS TO FEED THE POOR,
 AND THOUGH I GIVE MY BODY TO BE BURNED,
 AND HAVE NOT LOVE IT PROFITETH ME NOTHING.
 LOVE SUFFERETH LONG, AND IS KIND,
 LOVE ENVIETH NOT,
 LOVE VAUNTETH NOT ITSELF, IS NOT PUFFED UP,
 DOTH NOT BEHAVE ITSELF UNSEEMLY, SEEKETH NOT HER OWN,
 IS NOT EASILY PROVOKED, THINKETH NO EVIL,
 REJOICETH NOT IN INIQUITY, BUT REJOICETH IN THE TRUTH,
 BEARETH ALL THINGS, BELIEVETH ALL THINGS,
 HOPETH ALL THINGS, ENDURETH ALL THINGS.
 LOVE NEVER FAILETH, BUT WHETHER THERE BE PROPHECIES, THEY SHALL FAIL, 
 WHETHER THERE BE TONGUES, THEY SHALL CEASE,
 WHETHER THERE BE KNOWLEDGE, IT SHALL VANISH AWAY.
 FOR WE KNOW IN PART, AND WE PROPHESY IN PART.
 BUT WHEN THAT WHICH IS PERFECT IS COME, THEN THAT WHICH IS IN PART 
 SHALL BE DONE AWAY. 
 WHEN I WAS A CHILD, I SPAKE AS A CHILD, I UNDERSTOOD AS A CHILD, 
 I THOUGHT AS A CHILD.
 BUT WHEN I BECAME A MAN, I PUT AWAY CHILDISH THINGS.
 FOR NOW WE SEE THROUGH A GLASS, DARKLY, BUT THEN FACE TO FACE.
 NOW I KNOW IN PART. BUT THEN SHALL I KNOW EVEN AS ALSO I AM KNOWN.
 AND NOW ABIDETH FAITH, HOPE AND LOVE, THESE THREE.
 BUT THE GREATEST OF THESE IS LOVE.

                     I CORINTHIANS 13
 Job cpu time:  0 days  2 hours 22 minutes  3.0 seconds.
 File lengths (MBytes):  RWF=    287 Int=      0 D2E=      0 Chk=     12 Scr=      1
 Normal termination of Gaussian 03 at Sat Apr 02 00:24:33 2016.
