 Entering Link 1 = c:\G03W06\l1.exe PID=       540.
  
 Copyright (c) 1988,1990,1992,1993,1995,1998,2003,2004,2007, Gaussian, Inc.
                  All Rights Reserved.
  
 This is the Gaussian(R) 03 program.  It is based on the
 the Gaussian(R) 98 system (copyright 1998, Gaussian, Inc.),
 the Gaussian(R) 94 system (copyright 1995, Gaussian, Inc.),
 the Gaussian 92(TM) system (copyright 1992, Gaussian, Inc.),
 the Gaussian 90(TM) system (copyright 1990, Gaussian, Inc.),
 the Gaussian 88(TM) system (copyright 1988, Gaussian, Inc.),
 the Gaussian 86(TM) system (copyright 1986, Carnegie Mellon
 University), and the Gaussian 82(TM) system (copyright 1983,
 Carnegie Mellon University). Gaussian is a federally registered
 trademark of Gaussian, Inc.
  
 This software contains proprietary and confidential information,
 including trade secrets, belonging to Gaussian, Inc.
  
 This software is provided under written license and may be
 used, copied, transmitted, or stored only in accord with that
 written license.
  
 The following legend is applicable only to US Government
 contracts under FAR:
  
                    RESTRICTED RIGHTS LEGEND
  
 Use, reproduction and disclosure by the US Government is
 subject to restrictions as set forth in subparagraphs (a)
 and (c) of the Commercial Computer Software - Restricted
 Rights clause in FAR 52.227-19.
  
 Gaussian, Inc.
 340 Quinnipiac St., Bldg. 40, Wallingford CT 06492
  
  
 ---------------------------------------------------------------
 Warning -- This program may not be used in any manner that
 competes with the business of Gaussian, Inc. or will provide
 assistance to any competitor of Gaussian, Inc.  The licensee
 of this program is prohibited from giving any competitor of
 Gaussian, Inc. access to this program.  By using this program,
 the user acknowledges that Gaussian, Inc. is engaged in the
 business of creating and licensing software in the field of
 computational chemistry and represents and warrants to the
 licensee that it is not a competitor of Gaussian, Inc. and that
 it will not use this program in any manner prohibited above.
 ---------------------------------------------------------------
  

 Cite this work as:
 Gaussian 03, Revision E.01,
 M. J. Frisch, G. W. Trucks, H. B. Schlegel, G. E. Scuseria, 
 M. A. Robb, J. R. Cheeseman, J. A. Montgomery, Jr., T. Vreven, 
 K. N. Kudin, J. C. Burant, J. M. Millam, S. S. Iyengar, J. Tomasi, 
 V. Barone, B. Mennucci, M. Cossi, G. Scalmani, N. Rega, 
 G. A. Petersson, H. Nakatsuji, M. Hada, M. Ehara, K. Toyota, 
 R. Fukuda, J. Hasegawa, M. Ishida, T. Nakajima, Y. Honda, O. Kitao, 
 H. Nakai, M. Klene, X. Li, J. E. Knox, H. P. Hratchian, J. B. Cross, 
 V. Bakken, C. Adamo, J. Jaramillo, R. Gomperts, R. E. Stratmann, 
 O. Yazyev, A. J. Austin, R. Cammi, C. Pomelli, J. W. Ochterski, 
 P. Y. Ayala, K. Morokuma, G. A. Voth, P. Salvador, J. J. Dannenberg, 
 V. G. Zakrzewski, S. Dapprich, A. D. Daniels, M. C. Strain, 
 O. Farkas, D. K. Malick, A. D. Rabuck, K. Raghavachari, 
 J. B. Foresman, J. V. Ortiz, Q. Cui, A. G. Baboul, S. Clifford, 
 J. Cioslowski, B. B. Stefanov, G. Liu, A. Liashenko, P. Piskorz, 
 I. Komaromi, R. L. Martin, D. J. Fox, T. Keith, M. A. Al-Laham, 
 C. Y. Peng, A. Nanayakkara, M. Challacombe, P. M. W. Gill, 
 B. Johnson, W. Chen, M. W. Wong, C. Gonzalez, and J. A. Pople, 
 Gaussian, Inc., Wallingford CT, 2004.
 
 ******************************************
 Gaussian 03:  IA32W-G03RevE.01 11-Sep-2007
                29-Mar-2016 
 ******************************************
 %chk=E:\YangJ\Amiano\Asp\opt-rs\r\Asp-R-opt-freq-6-311++gdp.chk
 ------------------------------
 # opt freq b3lyp/6-311++g(d,p)
 ------------------------------
 1/14=-1,18=20,26=3,38=1/1,3;
 2/9=110,17=6,18=5,40=1/2;
 3/5=4,6=6,7=1111,11=2,16=1,25=1,30=1,74=-5/1,2,3;
 4//1;
 5/5=2,38=5/2;
 6/7=2,8=2,9=2,10=2,28=1/1;
 7//1,2,3,16;
 1/14=-1,18=20/3(3);
 2/9=110/2;
 6/7=2,8=2,9=2,10=2,19=2,28=1/1;
 99//99;
 2/9=110/2;
 3/5=4,6=6,7=1111,11=2,16=1,25=1,30=1,74=-5/1,2,3;
 4/5=5,16=3/1;
 5/5=2,38=5/2;
 7//1,2,3,16;
 1/14=-1,18=20/3(-5);
 2/9=110/2;
 6/7=2,8=2,9=2,10=2,19=2,28=1/1;
 99/9=1/99;
 ----------------------------
 Asp-R-opt-freq-6-311++g(d,p)
 ----------------------------
 Symbolic Z-matrix:
 Charge =  0 Multiplicity = 1
 C                    -0.46147   0.23738   0.43309 
 H                    -0.22044  -0.04813   1.46095 
 C                     0.53218  -0.50405  -0.53455 
 H                     0.32134  -1.57705  -0.56545 
 H                     0.38731  -0.09743  -1.54295 
 C                     1.97666  -0.36155  -0.1425 
 O                     2.79918  -1.2748   -0.05834 
 C                    -1.85835  -0.29341   0.17316 
 O                    -2.4755   -1.10164   0.86447 
 O                    -2.37339   0.22173  -1.0027 
 H                    -3.28239  -0.11432  -1.15898 
 N                    -0.48128   1.68774   0.3357 
 H                    -0.9095    2.04043  -0.51188 
 H                     0.40677   2.12102   0.55437 
 O                     2.33118   0.95393   0.12882 
 H                     3.28001   0.99722   0.38096 
 

 GradGradGradGradGradGradGradGradGradGradGradGradGradGradGradGradGradGrad
 Berny optimization.
 Initialization pass.
                           ----------------------------
                           !    Initial Parameters    !
                           ! (Angstroms and Degrees)  !
 --------------------------                            --------------------------
 ! Name  Definition              Value          Derivative Info.                !
 --------------------------------------------------------------------------------
 ! R1    R(1,2)                  1.0937         estimate D2E/DX2                !
 ! R2    R(1,3)                  1.5727         estimate D2E/DX2                !
 ! R3    R(1,8)                  1.5168         estimate D2E/DX2                !
 ! R4    R(1,12)                 1.4538         estimate D2E/DX2                !
 ! R5    R(3,4)                  1.094          estimate D2E/DX2                !
 ! R6    R(3,5)                  1.0969         estimate D2E/DX2                !
 ! R7    R(3,6)                  1.5035         estimate D2E/DX2                !
 ! R8    R(6,7)                  1.2319         estimate D2E/DX2                !
 ! R9    R(6,15)                 1.3892         estimate D2E/DX2                !
 ! R10   R(8,9)                  1.2296         estimate D2E/DX2                !
 ! R11   R(8,10)                 1.3832         estimate D2E/DX2                !
 ! R12   R(10,11)                0.9816         estimate D2E/DX2                !
 ! R13   R(12,13)                1.013          estimate D2E/DX2                !
 ! R14   R(12,14)                1.012          estimate D2E/DX2                !
 ! R15   R(15,16)                0.9827         estimate D2E/DX2                !
 ! A1    A(2,1,3)              108.4169         estimate D2E/DX2                !
 ! A2    A(2,1,8)              105.8232         estimate D2E/DX2                !
 ! A3    A(2,1,12)             109.0513         estimate D2E/DX2                !
 ! A4    A(3,1,8)              108.1471         estimate D2E/DX2                !
 ! A5    A(3,1,12)             115.9584         estimate D2E/DX2                !
 ! A6    A(8,1,12)             108.9721         estimate D2E/DX2                !
 ! A7    A(1,3,4)              110.978          estimate D2E/DX2                !
 ! A8    A(1,3,5)              107.9039         estimate D2E/DX2                !
 ! A9    A(1,3,6)              113.6967         estimate D2E/DX2                !
 ! A10   A(4,3,5)              108.1902         estimate D2E/DX2                !
 ! A11   A(4,3,6)              106.5884         estimate D2E/DX2                !
 ! A12   A(5,3,6)              109.3584         estimate D2E/DX2                !
 ! A13   A(3,6,7)              126.0868         estimate D2E/DX2                !
 ! A14   A(3,6,15)             112.6975         estimate D2E/DX2                !
 ! A15   A(7,6,15)             121.2154         estimate D2E/DX2                !
 ! A16   A(1,8,9)              126.577          estimate D2E/DX2                !
 ! A17   A(1,8,10)             110.9942         estimate D2E/DX2                !
 ! A18   A(9,8,10)             122.4            estimate D2E/DX2                !
 ! A19   A(8,10,11)            110.6489         estimate D2E/DX2                !
 ! A20   A(1,12,13)            114.1523         estimate D2E/DX2                !
 ! A21   A(1,12,14)            113.6225         estimate D2E/DX2                !
 ! A22   A(13,12,14)           113.7457         estimate D2E/DX2                !
 ! A23   A(6,15,16)            109.7694         estimate D2E/DX2                !
 ! D1    D(2,1,3,4)             70.196          estimate D2E/DX2                !
 ! D2    D(2,1,3,5)           -171.4304         estimate D2E/DX2                !
 ! D3    D(2,1,3,6)            -49.9495         estimate D2E/DX2                !
 ! D4    D(8,1,3,4)            -44.1076         estimate D2E/DX2                !
 ! D5    D(8,1,3,5)             74.266          estimate D2E/DX2                !
 ! D6    D(8,1,3,6)           -164.2531         estimate D2E/DX2                !
 ! D7    D(12,1,3,4)          -166.7966         estimate D2E/DX2                !
 ! D8    D(12,1,3,5)           -48.423          estimate D2E/DX2                !
 ! D9    D(12,1,3,6)            73.0579         estimate D2E/DX2                !
 ! D10   D(2,1,8,9)            -13.322          estimate D2E/DX2                !
 ! D11   D(2,1,8,10)           168.6057         estimate D2E/DX2                !
 ! D12   D(3,1,8,9)            102.683          estimate D2E/DX2                !
 ! D13   D(3,1,8,10)           -75.3892         estimate D2E/DX2                !
 ! D14   D(12,1,8,9)          -130.4636         estimate D2E/DX2                !
 ! D15   D(12,1,8,10)           51.4641         estimate D2E/DX2                !
 ! D16   D(2,1,12,13)         -165.9994         estimate D2E/DX2                !
 ! D17   D(2,1,12,14)           61.3293         estimate D2E/DX2                !
 ! D18   D(3,1,12,13)           71.3265         estimate D2E/DX2                !
 ! D19   D(3,1,12,14)          -61.3448         estimate D2E/DX2                !
 ! D20   D(8,1,12,13)          -50.9272         estimate D2E/DX2                !
 ! D21   D(8,1,12,14)          176.4015         estimate D2E/DX2                !
 ! D22   D(1,3,6,7)            131.7323         estimate D2E/DX2                !
 ! D23   D(1,3,6,15)           -48.4396         estimate D2E/DX2                !
 ! D24   D(4,3,6,7)              9.1373         estimate D2E/DX2                !
 ! D25   D(4,3,6,15)          -171.0346         estimate D2E/DX2                !
 ! D26   D(5,3,6,7)           -107.6006         estimate D2E/DX2                !
 ! D27   D(5,3,6,15)            72.2275         estimate D2E/DX2                !
 ! D28   D(3,6,15,16)          179.9107         estimate D2E/DX2                !
 ! D29   D(7,6,15,16)           -0.2517         estimate D2E/DX2                !
 ! D30   D(1,8,10,11)         -179.1436         estimate D2E/DX2                !
 ! D31   D(9,8,10,11)            2.6899         estimate D2E/DX2                !
 --------------------------------------------------------------------------------
 Trust Radius=3.00D-01 FncErr=1.00D-07 GrdErr=1.00D-06
 Number of steps in this run=  79 maximum allowed number of steps= 100.
 GradGradGradGradGradGradGradGradGradGradGradGradGradGradGradGradGradGrad

                          Input orientation:                          
 ---------------------------------------------------------------------
 Center     Atomic     Atomic              Coordinates (Angstroms)
 Number     Number      Type              X           Y           Z
 ---------------------------------------------------------------------
    1          6             0       -0.461474    0.237383    0.433089
    2          1             0       -0.220441   -0.048130    1.460946
    3          6             0        0.532183   -0.504045   -0.534548
    4          1             0        0.321338   -1.577049   -0.565445
    5          1             0        0.387308   -0.097429   -1.542950
    6          6             0        1.976655   -0.361550   -0.142502
    7          8             0        2.799176   -1.274803   -0.058343
    8          6             0       -1.858346   -0.293408    0.173162
    9          8             0       -2.475502   -1.101635    0.864469
   10          8             0       -2.373392    0.221733   -1.002702
   11          1             0       -3.282391   -0.114315   -1.158982
   12          7             0       -0.481276    1.687739    0.335695
   13          1             0       -0.909500    2.040427   -0.511879
   14          1             0        0.406771    2.121025    0.554370
   15          8             0        2.331184    0.953930    0.128815
   16          1             0        3.280008    0.997218    0.380958
 ---------------------------------------------------------------------
                    Distance matrix (angstroms):
                    1          2          3          4          5
     1  C    0.000000
     2  H    1.093666   0.000000
     3  C    1.572702   2.180894   0.000000
     4  H    2.214052   2.595646   1.093960   0.000000
     5  H    2.176525   3.065156   1.096905   1.774583   0.000000
     6  C    2.575752   2.737975   1.503497   2.096758   2.134722
     7  O    3.627678   3.595977   2.441331   2.547192   3.067144
     8  C    1.516757   2.097923   2.501969   2.635203   2.833092
     9  O    2.456698   2.559484   3.370539   3.176946   3.872955
    10  O    2.391061   3.282923   3.031219   3.269309   2.831112
    11  H    3.258213   4.030377   3.884943   3.934303   3.689771
    12  N    1.453757   2.085058   2.566776   3.480673   2.733234
    13  H    2.084385   2.954473   2.924603   3.821513   2.704671
    14  H    2.077659   2.433209   2.844725   3.864846   3.052977
    15  O    2.899131   3.047866   2.408764   3.305652   2.771066
    16  H    3.818214   3.809497   3.262282   4.034384   3.642442
                    6          7          8          9         10
     6  C    0.000000
     7  O    1.231931   0.000000
     8  C    3.848574   4.765421   0.000000
     9  O    4.624221   5.357592   1.229641   0.000000
    10  O    4.472479   5.466891   1.383220   2.290864   0.000000
    11  H    5.362082   6.288370   1.958210   2.391699   0.981647
    12  N    3.235689   4.437712   2.418198   3.469459   2.742368
    13  H    3.773039   4.995070   2.610819   3.770842   2.385694
    14  H    3.018832   4.198889   3.332501   4.334651   3.709594
    15  O    1.389169   2.285015   4.371496   5.279277   4.893820
    16  H    1.954224   2.363528   5.302035   6.145312   5.871697
                   11         12         13         14         15
    11  H    0.000000
    12  N    3.650713   0.000000
    13  H    3.269903   1.012989   0.000000
    14  H    4.641361   1.012019   1.695863   0.000000
    15  O    5.857627   2.913967   3.477499   2.290540   0.000000
    16  H    6.831691   3.824412   4.408789   3.090065   0.982709
                   16
    16  H    0.000000
 Stoichiometry    C4H7NO4
 Framework group  C1[X(C4H7NO4)]
 Deg. of freedom    42
 Full point group                 C1
 Largest Abelian subgroup         C1      NOp   1
 Largest concise Abelian subgroup C1      NOp   1
                         Standard orientation:                         
 ---------------------------------------------------------------------
 Center     Atomic     Atomic              Coordinates (Angstroms)
 Number     Number      Type              X           Y           Z
 ---------------------------------------------------------------------
    1          6             0        0.461474    0.237383   -0.433089
    2          1             0        0.220441   -0.048130   -1.460946
    3          6             0       -0.532183   -0.504045    0.534548
    4          1             0       -0.321338   -1.577049    0.565445
    5          1             0       -0.387308   -0.097429    1.542950
    6          6             0       -1.976655   -0.361550    0.142502
    7          8             0       -2.799176   -1.274803    0.058343
    8          6             0        1.858346   -0.293408   -0.173162
    9          8             0        2.475502   -1.101635   -0.864469
   10          8             0        2.373392    0.221733    1.002702
   11          1             0        3.282391   -0.114315    1.158982
   12          7             0        0.481276    1.687739   -0.335695
   13          1             0        0.909500    2.040427    0.511879
   14          1             0       -0.406771    2.121025   -0.554370
   15          8             0       -2.331184    0.953930   -0.128815
   16          1             0       -3.280008    0.997218   -0.380958
 ---------------------------------------------------------------------
 Rotational constants (GHZ):      3.1150929      0.8960244      0.7895087
 Standard basis: 6-311++G(d,p) (5D, 7F)
 There are   247 symmetry adapted basis functions of A   symmetry.
 Integral buffers will be    262144 words long.
 Raffenetti 2 integral format.
 Two-electron integral symmetry is turned on.
   247 basis functions,   387 primitive gaussians,   256 cartesian basis functions
    35 alpha electrons       35 beta electrons
       nuclear repulsion energy       459.6808589641 Hartrees.
 NAtoms=   16 NActive=   16 NUniq=   16 SFac= 7.50D-01 NAtFMM=   80 NAOKFM=F Big=F
 One-electron integrals computed using PRISM.
 NBasis=   247 RedAO= T  NBF=   247
 NBsUse=   247 1.00D-06 NBFU=   247
 Harris functional with IExCor=  402 diagonalized for initial guess.
 ExpMin= 3.60D-02 ExpMax= 8.59D+03 ExpMxC= 1.30D+03 IAcc=3 IRadAn=         5 AccDes= 0.00D+00
 HarFok:  IExCor= 402 AccDes= 0.00D+00 IRadAn=         5 IDoV=1
 ScaDFX=  1.000000  1.000000  1.000000  1.000000
 Initial guess orbital symmetries:
       Occupied  (A) (A) (A) (A) (A) (A) (A) (A) (A) (A) (A) (A)
                 (A) (A) (A) (A) (A) (A) (A) (A) (A) (A) (A) (A)
                 (A) (A) (A) (A) (A) (A) (A) (A) (A) (A) (A)
       Virtual   (A) (A) (A) (A) (A) (A) (A) (A) (A) (A) (A) (A)
                 (A) (A) (A) (A) (A) (A) (A) (A) (A) (A) (A) (A)
                 (A) (A) (A) (A) (A) (A) (A) (A) (A) (A) (A) (A)
                 (A) (A) (A) (A) (A) (A) (A) (A) (A) (A) (A) (A)
                 (A) (A) (A) (A) (A) (A) (A) (A) (A) (A) (A) (A)
                 (A) (A) (A) (A) (A) (A) (A) (A) (A) (A) (A) (A)
                 (A) (A) (A) (A) (A) (A) (A) (A) (A) (A) (A) (A)
                 (A) (A) (A) (A) (A) (A) (A) (A) (A) (A) (A) (A)
                 (A) (A) (A) (A) (A) (A) (A) (A) (A) (A) (A) (A)
                 (A) (A) (A) (A) (A) (A) (A) (A) (A) (A) (A) (A)
                 (A) (A) (A) (A) (A) (A) (A) (A) (A) (A) (A) (A)
                 (A) (A) (A) (A) (A) (A) (A) (A) (A) (A) (A) (A)
                 (A) (A) (A) (A) (A) (A) (A) (A) (A) (A) (A) (A)
                 (A) (A) (A) (A) (A) (A) (A) (A) (A) (A) (A) (A)
                 (A) (A) (A) (A) (A) (A) (A) (A) (A) (A) (A) (A)
                 (A) (A) (A) (A) (A) (A) (A) (A) (A) (A) (A) (A)
                 (A) (A) (A) (A) (A) (A) (A) (A) (A) (A) (A) (A)
                 (A) (A) (A) (A) (A) (A) (A) (A)
 The electronic state of the initial guess is 1-A.
 Requested convergence on RMS density matrix=1.00D-08 within 128 cycles.
 Requested convergence on MAX density matrix=1.00D-06.
 Requested convergence on             energy=1.00D-06.
 No special actions if energy rises.
 SCF Done:  E(RB+HF-LYP) =  -512.475180627     A.U. after   14 cycles
             Convg  =    0.3746D-08             -V/T =  2.0043
             S**2   =   0.0000

 **********************************************************************

            Population analysis using the SCF density.

 **********************************************************************

 Orbital symmetries:
       Occupied  (A) (A) (A) (A) (A) (A) (A) (A) (A) (A) (A) (A)
                 (A) (A) (A) (A) (A) (A) (A) (A) (A) (A) (A) (A)
                 (A) (A) (A) (A) (A) (A) (A) (A) (A) (A) (A)
       Virtual   (A) (A) (A) (A) (A) (A) (A) (A) (A) (A) (A) (A)
                 (A) (A) (A) (A) (A) (A) (A) (A) (A) (A) (A) (A)
                 (A) (A) (A) (A) (A) (A) (A) (A) (A) (A) (A) (A)
                 (A) (A) (A) (A) (A) (A) (A) (A) (A) (A) (A) (A)
                 (A) (A) (A) (A) (A) (A) (A) (A) (A) (A) (A) (A)
                 (A) (A) (A) (A) (A) (A) (A) (A) (A) (A) (A) (A)
                 (A) (A) (A) (A) (A) (A) (A) (A) (A) (A) (A) (A)
                 (A) (A) (A) (A) (A) (A) (A) (A) (A) (A) (A) (A)
                 (A) (A) (A) (A) (A) (A) (A) (A) (A) (A) (A) (A)
                 (A) (A) (A) (A) (A) (A) (A) (A) (A) (A) (A) (A)
                 (A) (A) (A) (A) (A) (A) (A) (A) (A) (A) (A) (A)
                 (A) (A) (A) (A) (A) (A) (A) (A) (A) (A) (A) (A)
                 (A) (A) (A) (A) (A) (A) (A) (A) (A) (A) (A) (A)
                 (A) (A) (A) (A) (A) (A) (A) (A) (A) (A) (A) (A)
                 (A) (A) (A) (A) (A) (A) (A) (A) (A) (A) (A) (A)
                 (A) (A) (A) (A) (A) (A) (A) (A) (A) (A) (A) (A)
                 (A) (A) (A) (A) (A) (A) (A) (A) (A) (A) (A) (A)
                 (A) (A) (A) (A) (A) (A) (A) (A)
 The electronic state is 1-A.
 Alpha  occ. eigenvalues --  -19.19409 -19.19385 -19.13986 -19.13932 -14.31040
 Alpha  occ. eigenvalues --  -10.33565 -10.33330 -10.24878 -10.21392  -1.11945
 Alpha  occ. eigenvalues --   -1.11818  -1.03487  -1.03343  -0.91426  -0.79773
 Alpha  occ. eigenvalues --   -0.72329  -0.63858  -0.62527  -0.53724  -0.52266
 Alpha  occ. eigenvalues --   -0.51228  -0.49883  -0.49460  -0.47774  -0.45281
 Alpha  occ. eigenvalues --   -0.44037  -0.43297  -0.42470  -0.40570  -0.39348
 Alpha  occ. eigenvalues --   -0.34811  -0.34520  -0.30965  -0.30130  -0.25602
 Alpha virt. eigenvalues --   -0.04574  -0.02726  -0.01983  -0.01357   0.01158
 Alpha virt. eigenvalues --    0.01389   0.01926   0.04086   0.04869   0.05545
 Alpha virt. eigenvalues --    0.06235   0.07295   0.08344   0.08859   0.09355
 Alpha virt. eigenvalues --    0.09876   0.10362   0.10888   0.11899   0.12486
 Alpha virt. eigenvalues --    0.13098   0.13839   0.13974   0.14448   0.15258
 Alpha virt. eigenvalues --    0.15603   0.16294   0.16859   0.18001   0.19470
 Alpha virt. eigenvalues --    0.19836   0.20826   0.21714   0.22109   0.23010
 Alpha virt. eigenvalues --    0.24152   0.24533   0.24610   0.25581   0.26158
 Alpha virt. eigenvalues --    0.26975   0.27916   0.28195   0.29412   0.29874
 Alpha virt. eigenvalues --    0.30119   0.30712   0.31805   0.31872   0.33427
 Alpha virt. eigenvalues --    0.34162   0.34322   0.36426   0.36474   0.37163
 Alpha virt. eigenvalues --    0.38845   0.39944   0.41853   0.44004   0.46020
 Alpha virt. eigenvalues --    0.47926   0.50782   0.52047   0.52812   0.56507
 Alpha virt. eigenvalues --    0.57562   0.59545   0.60571   0.61183   0.63155
 Alpha virt. eigenvalues --    0.64750   0.66607   0.68044   0.69360   0.70476
 Alpha virt. eigenvalues --    0.70838   0.72784   0.76977   0.79613   0.80898
 Alpha virt. eigenvalues --    0.83916   0.84293   0.86150   0.88975   0.94140
 Alpha virt. eigenvalues --    0.96481   1.03966   1.06644   1.08034   1.08512
 Alpha virt. eigenvalues --    1.11967   1.13443   1.14408   1.15520   1.16218
 Alpha virt. eigenvalues --    1.17214   1.19757   1.21163   1.21437   1.22919
 Alpha virt. eigenvalues --    1.24335   1.27151   1.29573   1.32074   1.33345
 Alpha virt. eigenvalues --    1.41741   1.44628   1.47151   1.48804   1.49147
 Alpha virt. eigenvalues --    1.51182   1.53302   1.54839   1.56091   1.58172
 Alpha virt. eigenvalues --    1.58835   1.61736   1.64553   1.65718   1.67476
 Alpha virt. eigenvalues --    1.68848   1.73139   1.75338   1.76720   1.80819
 Alpha virt. eigenvalues --    1.84284   1.86245   1.88028   1.90548   1.92560
 Alpha virt. eigenvalues --    1.96050   1.98679   2.01791   2.05918   2.09238
 Alpha virt. eigenvalues --    2.10853   2.16317   2.19645   2.22288   2.25626
 Alpha virt. eigenvalues --    2.34751   2.45955   2.49289   2.50621   2.53410
 Alpha virt. eigenvalues --    2.55095   2.58616   2.61569   2.62432   2.64570
 Alpha virt. eigenvalues --    2.66448   2.73762   2.75448   2.77840   2.82370
 Alpha virt. eigenvalues --    2.83935   2.86063   2.87392   2.89194   2.90624
 Alpha virt. eigenvalues --    2.91124   2.98415   2.99147   3.02273   3.02711
 Alpha virt. eigenvalues --    3.06342   3.10970   3.11958   3.14590   3.15372
 Alpha virt. eigenvalues --    3.17667   3.18946   3.27892   3.32601   3.33667
 Alpha virt. eigenvalues --    3.50122   3.54090   3.58357   3.60002   3.67401
 Alpha virt. eigenvalues --    3.78747   3.80730   3.85222   4.00422   4.02329
 Alpha virt. eigenvalues --    4.04758   4.04979   4.14412   4.21146   4.76770
 Alpha virt. eigenvalues --    4.85365   4.96632   4.97459   5.03804   5.04768
 Alpha virt. eigenvalues --    5.13685   5.14981   5.32213   5.34865   5.53136
 Alpha virt. eigenvalues --    5.54896   5.79187   5.80260  23.71627  23.75114
 Alpha virt. eigenvalues --   23.78558  23.86856  35.60243  49.83496  49.85050
 Alpha virt. eigenvalues --   49.96250  49.97217
          Condensed to atoms (all electrons):
              1          2          3          4          5          6
     1  C    8.844562   0.611912  -1.634658  -0.069917  -0.008192   0.374741
     2  H    0.611912   0.523768  -0.197895  -0.006731   0.008793   0.071028
     3  C   -1.634658  -0.197895   7.677012   0.444522   0.384687  -0.689281
     4  H   -0.069917  -0.006731   0.444522   0.493415  -0.031379  -0.066862
     5  H   -0.008192   0.008793   0.384687  -0.031379   0.505169  -0.010167
     6  C    0.374741   0.071028  -0.689281  -0.066862  -0.010167   5.992159
     7  O   -0.047026  -0.007758  -0.004431   0.000281  -0.009049   0.422426
     8  C   -1.475064  -0.207159   0.699193   0.014357  -0.043569  -0.421078
     9  O    0.097476   0.001088  -0.088665  -0.005149   0.000867   0.005110
    10  O    0.066613   0.012464  -0.106768  -0.004984   0.007728   0.003252
    11  H   -0.100833  -0.005382   0.015705   0.002041  -0.002169  -0.007416
    12  N   -0.234398  -0.042693   0.046733   0.015327  -0.020490  -0.008606
    13  H   -0.035045   0.005204   0.010166  -0.000497  -0.000946   0.007530
    14  H   -0.054845  -0.010707   0.028988   0.000010   0.003986  -0.017905
    15  O   -0.092704  -0.000817  -0.193201   0.010777  -0.001130   0.182447
    16  H    0.016262   0.003500  -0.059656  -0.002900   0.004980   0.064463
              7          8          9         10         11         12
     1  C   -0.047026  -1.475064   0.097476   0.066613  -0.100833  -0.234398
     2  H   -0.007758  -0.207159   0.001088   0.012464  -0.005382  -0.042693
     3  C   -0.004431   0.699193  -0.088665  -0.106768   0.015705   0.046733
     4  H    0.000281   0.014357  -0.005149  -0.004984   0.002041   0.015327
     5  H   -0.009049  -0.043569   0.000867   0.007728  -0.002169  -0.020490
     6  C    0.422426  -0.421078   0.005110   0.003252  -0.007416  -0.008606
     7  O    8.027816   0.009676   0.000147   0.000069   0.000037  -0.001390
     8  C    0.009676   6.771084   0.403551   0.108572   0.109665   0.079657
     9  O    0.000147   0.403551   7.987568  -0.131566  -0.010073  -0.019075
    10  O    0.000069   0.108572  -0.131566   8.081689   0.216436  -0.059823
    11  H    0.000037   0.109665  -0.010073   0.216436   0.471947   0.007461
    12  N   -0.001390   0.079657  -0.019075  -0.059823   0.007461   6.768071
    13  H    0.000165  -0.012943  -0.000206   0.001336   0.000648   0.396615
    14  H    0.002062   0.009971  -0.000745  -0.001551  -0.000364   0.378432
    15  O   -0.122751   0.024085   0.000056  -0.000044   0.000009   0.006454
    16  H   -0.009580  -0.008267   0.000048  -0.000093  -0.000037  -0.001616
             13         14         15         16
     1  C   -0.035045  -0.054845  -0.092704   0.016262
     2  H    0.005204  -0.010707  -0.000817   0.003500
     3  C    0.010166   0.028988  -0.193201  -0.059656
     4  H   -0.000497   0.000010   0.010777  -0.002900
     5  H   -0.000946   0.003986  -0.001130   0.004980
     6  C    0.007530  -0.017905   0.182447   0.064463
     7  O    0.000165   0.002062  -0.122751  -0.009580
     8  C   -0.012943   0.009971   0.024085  -0.008267
     9  O   -0.000206  -0.000745   0.000056   0.000048
    10  O    0.001336  -0.001551  -0.000044  -0.000093
    11  H    0.000648  -0.000364   0.000009  -0.000037
    12  N    0.396615   0.378432   0.006454  -0.001616
    13  H    0.425785  -0.040997  -0.001480  -0.000410
    14  H   -0.040997   0.431947   0.001973  -0.002244
    15  O   -0.001480   0.001973   8.193924   0.217356
    16  H   -0.000410  -0.002244   0.217356   0.472560
 Mulliken atomic charges:
              1
     1  C   -0.258885
     2  H    0.241385
     3  C   -0.332451
     4  H    0.207689
     5  H    0.210881
     6  C    0.098158
     7  O   -0.260695
     8  C   -0.061732
     9  O   -0.240432
    10  O   -0.193331
    11  H    0.302326
    12  N   -0.310660
    13  H    0.245075
    14  H    0.271990
    15  O   -0.224952
    16  H    0.305635
 Sum of Mulliken charges=   0.00000
 Atomic charges with hydrogens summed into heavy atoms:
              1
     1  C   -0.017500
     2  H    0.000000
     3  C    0.086118
     4  H    0.000000
     5  H    0.000000
     6  C    0.098158
     7  O   -0.260695
     8  C   -0.061732
     9  O   -0.240432
    10  O    0.108995
    11  H    0.000000
    12  N    0.206405
    13  H    0.000000
    14  H    0.000000
    15  O    0.080683
    16  H    0.000000
 Sum of Mulliken charges=   0.00000
 Electronic spatial extent (au):  <R**2>=  1415.8057
 Charge=     0.0000 electrons
 Dipole moment (field-independent basis, Debye):
    X=    -0.2640    Y=     2.3704    Z=     1.9843  Tot=     3.1025
 Quadrupole moment (field-independent basis, Debye-Ang):
   XX=   -52.2159   YY=   -57.8974   ZZ=   -53.0556
   XY=    -6.2217   XZ=     8.6601   YZ=    -1.4107
 Traceless Quadrupole moment (field-independent basis, Debye-Ang):
   XX=     2.1738   YY=    -3.5078   ZZ=     1.3340
   XY=    -6.2217   XZ=     8.6601   YZ=    -1.4107
 Octapole moment (field-independent basis, Debye-Ang**2):
  XXX=    12.2021  YYY=     9.5799  ZZZ=     3.4942  XYY=    -1.8149
  XXY=    35.5087  XXZ=    16.9073  XZZ=    -4.0026  YZZ=     0.0748
  YYZ=     6.8455  XYZ=    -1.7441
 Hexadecapole moment (field-independent basis, Debye-Ang**3):
 XXXX= -1070.7010 YYYY=  -339.3582 ZZZZ=  -157.8446 XXXY=   -87.4756
 XXXZ=   108.3339 YYYX=   -22.2918 YYYZ=     8.1336 ZZZX=    14.9625
 ZZZY=     2.2093 XXYY=  -299.1370 XXZZ=  -221.0612 YYZZ=   -89.2408
 XXYZ=   -22.6364 YYXZ=    20.5463 ZZXY=    -2.0189
 N-N= 4.596808589641D+02 E-N=-2.121958875886D+03  KE= 5.102969921520D+02
 ***** Axes restored to original set *****
 -------------------------------------------------------------------
 Center     Atomic                   Forces (Hartrees/Bohr)
 Number     Number              X              Y              Z
 -------------------------------------------------------------------
    1          6           0.004825781    0.003826817   -0.003429603
    2          1          -0.000869813    0.000480376   -0.001286136
    3          6          -0.004134233   -0.000631806    0.000816096
    4          1           0.000751849    0.001516017    0.000123904
    5          1           0.001506646   -0.000615268    0.001512519
    6          6           0.040544176   -0.013137504    0.007705770
    7          8          -0.031025043    0.032580857   -0.003206042
    8          6          -0.034731194   -0.024264828    0.006307715
    9          8           0.023457008    0.029418802   -0.024424599
   10          8          -0.001127019   -0.006957356    0.010753304
   11          1           0.012406821    0.001183830    0.007013498
   12          7          -0.006857689   -0.000363669    0.008088571
   13          1           0.005258048   -0.001451679    0.000090794
   14          1          -0.001302245   -0.002029349   -0.004836515
   15          8           0.003637415   -0.013125327   -0.001134495
   16          1          -0.012340507   -0.006429916   -0.004094781
 -------------------------------------------------------------------
 Cartesian Forces:  Max     0.040544176 RMS     0.013520134

 GradGradGradGradGradGradGradGradGradGradGradGradGradGradGradGradGradGrad
 Berny optimization.
 Internal  Forces:  Max     0.045085543 RMS     0.009093222
 Search for a local minimum.
 Step number   1 out of a maximum of  79
 All quantities printed in internal units (Hartrees-Bohrs-Radians)
 Second derivative matrix not updated -- first step.
     Eigenvalues ---    0.00230   0.00544   0.00720   0.00865   0.00976
     Eigenvalues ---    0.00981   0.01835   0.01914   0.03013   0.04007
     Eigenvalues ---    0.04192   0.05073   0.05330   0.06872   0.09549
     Eigenvalues ---    0.12919   0.16000   0.16000   0.16000   0.16000
     Eigenvalues ---    0.17463   0.18760   0.22017   0.24991   0.25000
     Eigenvalues ---    0.25000   0.25000   0.25808   0.30681   0.32013
     Eigenvalues ---    0.34027   0.34359   0.34392   0.37757   0.45476
     Eigenvalues ---    0.45636   0.47464   0.48518   0.50862   0.51066
     Eigenvalues ---    0.90286   0.912361000.000001000.000001000.00000
     Eigenvalues --- 1000.000001000.000001000.000001000.000001000.00000
     Eigenvalues --- 1000.000001000.000001000.000001000.000001000.00000
     Eigenvalues --- 1000.000001000.000001000.000001000.000001000.00000
     Eigenvalues --- 1000.000001000.000001000.000001000.000001000.00000
     Eigenvalues --- 1000.000001000.000001000.000001000.00000
 RFO step:  Lambda=-9.94141341D-03.
 Linear search not attempted -- first point.
 Iteration  1 RMS(Cart)=  0.04940423 RMS(Int)=  0.00157935
 Iteration  2 RMS(Cart)=  0.00182307 RMS(Int)=  0.00061468
 Iteration  3 RMS(Cart)=  0.00000163 RMS(Int)=  0.00061468
 Iteration  4 RMS(Cart)=  0.00000000 RMS(Int)=  0.00061468
 Variable       Old X    -DE/DX   Delta X   Delta X   Delta X     New X
                                 (Linear)    (Quad)   (Total)
    R1        2.06673  -0.00153   0.00000  -0.00431  -0.00431   2.06242
    R2        2.97198  -0.00180   0.00000  -0.00671  -0.00671   2.96527
    R3        2.86626   0.00027   0.00000   0.00085   0.00085   2.86711
    R4        2.74720  -0.00402   0.00000  -0.01038  -0.01038   2.73682
    R5        2.06728  -0.00164   0.00000  -0.00463  -0.00463   2.06266
    R6        2.07285  -0.00181   0.00000  -0.00518  -0.00518   2.06767
    R7        2.84120   0.00058   0.00000   0.00176   0.00176   2.84296
    R8        2.32801  -0.04509   0.00000  -0.04939  -0.04939   2.27862
    R9        2.62515  -0.02177   0.00000  -0.04492  -0.04492   2.58023
   R10        2.32369  -0.04484   0.00000  -0.04862  -0.04862   2.27507
   R11        2.61391  -0.02145   0.00000  -0.04332  -0.04332   2.57059
   R12        1.85504  -0.01301   0.00000  -0.02499  -0.02499   1.83005
   R13        1.91427  -0.00281   0.00000  -0.00605  -0.00605   1.90823
   R14        1.91244  -0.00305   0.00000  -0.00655  -0.00655   1.90589
   R15        1.85705  -0.01325   0.00000  -0.02555  -0.02555   1.83150
    A1        1.89223  -0.00020   0.00000  -0.00183  -0.00191   1.89032
    A2        1.84696  -0.00006   0.00000  -0.01059  -0.01062   1.83634
    A3        1.90330  -0.00076   0.00000  -0.00247  -0.00249   1.90082
    A4        1.88752  -0.00169   0.00000  -0.00727  -0.00733   1.88019
    A5        2.02386   0.00245   0.00000   0.01733   0.01732   2.04118
    A6        1.90192   0.00005   0.00000   0.00227   0.00228   1.90420
    A7        1.93693  -0.00093   0.00000  -0.00565  -0.00558   1.93135
    A8        1.88328   0.00015   0.00000   0.00833   0.00831   1.89159
    A9        1.98438   0.00336   0.00000   0.01498   0.01496   1.99935
   A10        1.88828   0.00048   0.00000   0.00023   0.00019   1.88846
   A11        1.86032  -0.00162   0.00000  -0.01294  -0.01292   1.84739
   A12        1.90866  -0.00157   0.00000  -0.00577  -0.00591   1.90276
   A13        2.20063  -0.00257   0.00000  -0.00988  -0.00989   2.19075
   A14        1.96694   0.00225   0.00000   0.00865   0.00865   1.97559
   A15        2.11561   0.00032   0.00000   0.00122   0.00122   2.11683
   A16        2.20919  -0.00209   0.00000  -0.00801  -0.00802   2.20117
   A17        1.93721   0.00132   0.00000   0.00512   0.00512   1.94233
   A18        2.13628   0.00077   0.00000   0.00303   0.00302   2.13931
   A19        1.93119  -0.01100   0.00000  -0.06472  -0.06472   1.86647
   A20        1.99233  -0.00151   0.00000  -0.03062  -0.03271   1.95963
   A21        1.98309  -0.00169   0.00000  -0.03179  -0.03390   1.94919
   A22        1.98524  -0.00107   0.00000  -0.03840  -0.04194   1.94330
   A23        1.91584  -0.01097   0.00000  -0.06457  -0.06457   1.85127
    D1        1.22515  -0.00040   0.00000   0.01488   0.01488   1.24003
    D2       -2.99202  -0.00026   0.00000   0.01699   0.01695  -2.97508
    D3       -0.87178   0.00003   0.00000   0.02531   0.02535  -0.84644
    D4       -0.76982   0.00064   0.00000   0.03194   0.03193  -0.73789
    D5        1.29619   0.00078   0.00000   0.03406   0.03400   1.33019
    D6       -2.86676   0.00107   0.00000   0.04237   0.04240  -2.82435
    D7       -2.91115   0.00019   0.00000   0.02252   0.02254  -2.88861
    D8       -0.84514   0.00033   0.00000   0.02464   0.02461  -0.82053
    D9        1.27510   0.00062   0.00000   0.03295   0.03301   1.30811
   D10       -0.23251   0.00000   0.00000  -0.00339  -0.00342  -0.23593
   D11        2.94273  -0.00010   0.00000  -0.00799  -0.00801   2.93472
   D12        1.79216  -0.00106   0.00000  -0.01428  -0.01425   1.77790
   D13       -1.31579  -0.00116   0.00000  -0.01888  -0.01884  -1.33463
   D14       -2.27702   0.00089   0.00000   0.00399   0.00398  -2.27304
   D15        0.89822   0.00079   0.00000  -0.00060  -0.00061   0.89761
   D16       -2.89724  -0.00202   0.00000  -0.05649  -0.05560  -2.95284
   D17        1.07040   0.00279   0.00000   0.06377   0.06289   1.13329
   D18        1.24488  -0.00292   0.00000  -0.06461  -0.06370   1.18119
   D19       -1.07067   0.00190   0.00000   0.05565   0.05480  -1.01587
   D20       -0.88885  -0.00248   0.00000  -0.06917  -0.06832  -0.95717
   D21        3.07879   0.00234   0.00000   0.05109   0.05017   3.12896
   D22        2.29916  -0.00065   0.00000  -0.01648  -0.01649   2.28267
   D23       -0.84543  -0.00072   0.00000  -0.02041  -0.02041  -0.86584
   D24        0.15948  -0.00045   0.00000  -0.00964  -0.00960   0.14988
   D25       -2.98512  -0.00053   0.00000  -0.01357  -0.01352  -2.99864
   D26       -1.87798   0.00067   0.00000   0.00006   0.00002  -1.87797
   D27        1.26061   0.00059   0.00000  -0.00386  -0.00391   1.25670
   D28        3.14003   0.00005   0.00000   0.00222   0.00223  -3.14092
   D29       -0.00439  -0.00003   0.00000  -0.00152  -0.00153  -0.00592
   D30       -3.12665  -0.00014   0.00000  -0.00328  -0.00327  -3.12992
   D31        0.04695  -0.00017   0.00000  -0.00740  -0.00742   0.03953
         Item               Value     Threshold  Converged?
 Maximum Force            0.045086     0.000450     NO 
 RMS     Force            0.009093     0.000300     NO 
 Maximum Displacement     0.220531     0.001800     NO 
 RMS     Displacement     0.049043     0.001200     NO 
 Predicted change in Energy=-5.196870D-03
 GradGradGradGradGradGradGradGradGradGradGradGradGradGradGradGradGradGrad

                          Input orientation:                          
 ---------------------------------------------------------------------
 Center     Atomic     Atomic              Coordinates (Angstroms)
 Number     Number      Type              X           Y           Z
 ---------------------------------------------------------------------
    1          6             0       -0.470411    0.266946    0.423660
    2          1             0       -0.234314   -0.022202    1.449219
    3          6             0        0.533793   -0.461242   -0.537359
    4          1             0        0.317254   -1.530106   -0.582470
    5          1             0        0.412908   -0.045340   -1.542149
    6          6             0        1.978369   -0.351469   -0.131821
    7          8             0        2.755199   -1.270170   -0.051439
    8          6             0       -1.853958   -0.296903    0.159472
    9          8             0       -2.430468   -1.108825    0.836099
   10          8             0       -2.381419    0.206553   -0.988886
   11          1             0       -3.261856   -0.183908   -1.089927
   12          7             0       -0.524384    1.712013    0.344056
   13          1             0       -0.907878    2.033032   -0.533186
   14          1             0        0.375766    2.129052    0.525679
   15          8             0        2.363776    0.929142    0.143523
   16          1             0        3.299924    0.880518    0.389680
 ---------------------------------------------------------------------
                    Distance matrix (angstroms):
                    1          2          3          4          5
     1  C    0.000000
     2  H    1.091385   0.000000
     3  C    1.569152   2.174681   0.000000
     4  H    2.205019   2.589549   1.091510   0.000000
     5  H    2.177654   3.060672   1.094162   1.770498   0.000000
     6  C    2.586023   2.739356   1.504430   2.086041   2.129180
     7  O    3.604581   3.570237   2.413531   2.508612   3.034594
     8  C    1.517209   2.088577   2.492776   2.604886   2.845607
     9  O    2.429954   2.525818   3.330555   3.120864   3.856404
    10  O    2.377160   3.256800   3.024614   3.234811   2.859688
    11  H    3.207239   3.954671   3.845672   3.857434   3.705077
    12  N    1.448264   2.076783   2.572871   3.475362   2.743096
    13  H    2.055721   2.933872   2.880943   3.768200   2.661224
    14  H    2.047892   2.419302   2.804398   3.823723   3.000879
    15  O    2.923969   3.059407   2.396999   3.280734   2.756265
    16  H    3.820085   3.798469   3.211106   3.956324   3.595002
                    6          7          8          9         10
     6  C    0.000000
     7  O    1.205794   0.000000
     8  C    3.843768   4.715513   0.000000
     9  O    4.576931   5.263545   1.203913   0.000000
    10  O    4.478136   5.426267   1.360298   2.250154   0.000000
    11  H    5.329728   6.201885   1.885721   2.292652   0.968420
    12  N    3.278443   4.450337   2.416109   3.439824   2.737102
    13  H    3.765284   4.955942   2.608340   3.750265   2.390609
    14  H    3.025497   4.189210   3.315273   4.295947   3.686731
    15  O    1.365400   2.242364   4.392348   5.255259   4.931670
    16  H    1.880496   2.262028   5.291674   6.082283   5.884925
                   11         12         13         14         15
    11  H    0.000000
    12  N    3.625545   0.000000
    13  H    3.281157   1.009789   0.000000
    14  H    4.603506   1.008553   1.666781   0.000000
    15  O    5.865835   2.999095   3.518556   2.353299   0.000000
    16  H    6.810227   3.913923   4.459324   3.182457   0.969190
                   16
    16  H    0.000000
 Stoichiometry    C4H7NO4
 Framework group  C1[X(C4H7NO4)]
 Deg. of freedom    42
 Full point group                 C1
 Largest Abelian subgroup         C1      NOp   1
 Largest concise Abelian subgroup C1      NOp   1
                         Standard orientation:                         
 ---------------------------------------------------------------------
 Center     Atomic     Atomic              Coordinates (Angstroms)
 Number     Number      Type              X           Y           Z
 ---------------------------------------------------------------------
    1          6             0        0.467741    0.266376   -0.423117
    2          1             0        0.227133   -0.014269   -1.449989
    3          6             0       -0.533315   -0.468450    0.536131
    4          1             0       -0.317761   -1.537871    0.571765
    5          1             0       -0.407864   -0.060766    1.543726
    6          6             0       -1.979418   -0.353891    0.137417
    7          8             0       -2.757574   -1.271092    0.052844
    8          6             0        1.851742   -0.301044   -0.169145
    9          8             0        2.424590   -1.108111   -0.854632
   10          8             0        2.384449    0.192606    0.981048
   11          1             0        3.264865   -0.199587    1.075336
   12          7             0        0.523618    1.710698   -0.332128
   13          1             0        0.911050    2.024249    0.546084
   14          1             0       -0.376812    2.130137   -0.506701
   15          8             0       -2.364551    0.929300   -0.126046
   16          1             0       -3.301750    0.883648   -0.368744
 ---------------------------------------------------------------------
 Rotational constants (GHZ):      3.1483396      0.9042902      0.7946841
 Standard basis: 6-311++G(d,p) (5D, 7F)
 There are   247 symmetry adapted basis functions of A   symmetry.
 Integral buffers will be    262144 words long.
 Raffenetti 2 integral format.
 Two-electron integral symmetry is turned on.
   247 basis functions,   387 primitive gaussians,   256 cartesian basis functions
    35 alpha electrons       35 beta electrons
       nuclear repulsion energy       462.8683995607 Hartrees.
 NAtoms=   16 NActive=   16 NUniq=   16 SFac= 7.50D-01 NAtFMM=   80 NAOKFM=F Big=F
 One-electron integrals computed using PRISM.
 NBasis=   247 RedAO= T  NBF=   247
 NBsUse=   247 1.00D-06 NBFU=   247
 Initial guess read from the read-write file:
 Initial guess orbital symmetries:
       Occupied  (A) (A) (A) (A) (A) (A) (A) (A) (A) (A) (A) (A)
                 (A) (A) (A) (A) (A) (A) (A) (A) (A) (A) (A) (A)
                 (A) (A) (A) (A) (A) (A) (A) (A) (A) (A) (A)
       Virtual   (A) (A) (A) (A) (A) (A) (A) (A) (A) (A) (A) (A)
                 (A) (A) (A) (A) (A) (A) (A) (A) (A) (A) (A) (A)
                 (A) (A) (A) (A) (A) (A) (A) (A) (A) (A) (A) (A)
                 (A) (A) (A) (A) (A) (A) (A) (A) (A) (A) (A) (A)
                 (A) (A) (A) (A) (A) (A) (A) (A) (A) (A) (A) (A)
                 (A) (A) (A) (A) (A) (A) (A) (A) (A) (A) (A) (A)
                 (A) (A) (A) (A) (A) (A) (A) (A) (A) (A) (A) (A)
                 (A) (A) (A) (A) (A) (A) (A) (A) (A) (A) (A) (A)
                 (A) (A) (A) (A) (A) (A) (A) (A) (A) (A) (A) (A)
                 (A) (A) (A) (A) (A) (A) (A) (A) (A) (A) (A) (A)
                 (A) (A) (A) (A) (A) (A) (A) (A) (A) (A) (A) (A)
                 (A) (A) (A) (A) (A) (A) (A) (A) (A) (A) (A) (A)
                 (A) (A) (A) (A) (A) (A) (A) (A) (A) (A) (A) (A)
                 (A) (A) (A) (A) (A) (A) (A) (A) (A) (A) (A) (A)
                 (A) (A) (A) (A) (A) (A) (A) (A) (A) (A) (A) (A)
                 (A) (A) (A) (A) (A) (A) (A) (A) (A) (A) (A) (A)
                 (A) (A) (A) (A) (A) (A) (A) (A) (A) (A) (A) (A)
                 (A) (A) (A) (A) (A) (A) (A) (A)
 Harris functional with IExCor=  402 diagonalized for initial guess.
 ExpMin= 3.60D-02 ExpMax= 8.59D+03 ExpMxC= 1.30D+03 IAcc=3 IRadAn=         5 AccDes= 0.00D+00
 HarFok:  IExCor= 402 AccDes= 0.00D+00 IRadAn=         5 IDoV=1
 ScaDFX=  1.000000  1.000000  1.000000  1.000000
 Requested convergence on RMS density matrix=1.00D-08 within 128 cycles.
 Requested convergence on MAX density matrix=1.00D-06.
 Requested convergence on             energy=1.00D-06.
 No special actions if energy rises.
 SCF Done:  E(RB+HF-LYP) =  -512.480512940     A.U. after   12 cycles
             Convg  =    0.6879D-08             -V/T =  2.0035
             S**2   =   0.0000
 ***** Axes restored to original set *****
 -------------------------------------------------------------------
 Center     Atomic                   Forces (Hartrees/Bohr)
 Number     Number              X              Y              Z
 -------------------------------------------------------------------
    1          6           0.003841448   -0.002891891   -0.000875502
    2          1           0.000259488    0.000268950    0.000335288
    3          6          -0.003854669   -0.000398737    0.000945187
    4          1          -0.000471395    0.000094731   -0.000361483
    5          1           0.000569042    0.000066787   -0.000295498
    6          6           0.005984498    0.000819827    0.001229808
    7          8          -0.002805582    0.001314732   -0.000358429
    8          6          -0.004814798   -0.002249591   -0.000971521
    9          8           0.002151831    0.001767678   -0.001182926
   10          8           0.000549744   -0.000759887    0.002061124
   11          1          -0.000839933    0.000004122   -0.000868569
   12          7          -0.003981656    0.000172200    0.005582860
   13          1           0.001930098    0.001261321   -0.002966741
   14          1           0.002636165    0.001598128   -0.001903313
   15          8          -0.001838442   -0.002224460   -0.000793758
   16          1           0.000684161    0.001156089    0.000423474
 -------------------------------------------------------------------
 Cartesian Forces:  Max     0.005984498 RMS     0.002134635

 GradGradGradGradGradGradGradGradGradGradGradGradGradGradGradGradGradGrad
 Berny optimization.
 Internal  Forces:  Max     0.003318397 RMS     0.001224165
 Search for a local minimum.
 Step number   2 out of a maximum of  79
 All quantities printed in internal units (Hartrees-Bohrs-Radians)
 Update second derivatives using D2CorX and points  1  2
 Trust test= 1.03D+00 RLast= 2.33D-01 DXMaxT set to 4.24D-01
     Eigenvalues ---    0.00234   0.00544   0.00720   0.00868   0.00979
     Eigenvalues ---    0.00980   0.01835   0.01914   0.03413   0.03947
     Eigenvalues ---    0.04073   0.05086   0.05293   0.06962   0.09696
     Eigenvalues ---    0.12987   0.15990   0.16000   0.16000   0.16876
     Eigenvalues ---    0.17706   0.18915   0.22256   0.24795   0.24996
     Eigenvalues ---    0.25000   0.25160   0.25749   0.30631   0.31971
     Eigenvalues ---    0.34038   0.34361   0.34405   0.37932   0.45214
     Eigenvalues ---    0.45554   0.47527   0.48524   0.50949   0.51926
     Eigenvalues ---    0.87060   0.908151000.000001000.000001000.00000
     Eigenvalues --- 1000.000001000.000001000.000001000.000001000.00000
     Eigenvalues --- 1000.000001000.000001000.000001000.000001000.00000
     Eigenvalues --- 1000.000001000.000001000.000001000.000001000.00000
     Eigenvalues --- 1000.000001000.000001000.000001000.000001000.00000
     Eigenvalues --- 1000.000001000.000001000.000001000.00000
 RFO step:  Lambda=-6.86883258D-04.
 Quartic linear search produced a step of  0.04573.
 Iteration  1 RMS(Cart)=  0.04190947 RMS(Int)=  0.00061753
 Iteration  2 RMS(Cart)=  0.00079976 RMS(Int)=  0.00018026
 Iteration  3 RMS(Cart)=  0.00000053 RMS(Int)=  0.00018026
 Variable       Old X    -DE/DX   Delta X   Delta X   Delta X     New X
                                 (Linear)    (Quad)   (Total)
    R1        2.06242   0.00030  -0.00020   0.00079   0.00059   2.06301
    R2        2.96527  -0.00197  -0.00031  -0.00812  -0.00842   2.95684
    R3        2.86711   0.00332   0.00004   0.01128   0.01132   2.87843
    R4        2.73682   0.00296  -0.00047   0.00789   0.00741   2.74423
    R5        2.06266   0.00002  -0.00021  -0.00008  -0.00029   2.06237
    R6        2.06767   0.00024  -0.00024   0.00058   0.00034   2.06801
    R7        2.84296   0.00215   0.00008   0.00705   0.00714   2.85010
    R8        2.27862  -0.00283  -0.00226  -0.00471  -0.00697   2.27165
    R9        2.58023  -0.00141  -0.00205  -0.00435  -0.00641   2.57382
   R10        2.27507  -0.00289  -0.00222  -0.00472  -0.00694   2.26812
   R11        2.57059  -0.00117  -0.00198  -0.00373  -0.00571   2.56488
   R12        1.83005   0.00085  -0.00114   0.00103  -0.00011   1.82994
   R13        1.90823   0.00224  -0.00028   0.00497   0.00469   1.91291
   R14        1.90589   0.00267  -0.00030   0.00592   0.00562   1.91151
   R15        1.83150   0.00071  -0.00117   0.00074  -0.00043   1.83107
    A1        1.89032   0.00030  -0.00009  -0.00168  -0.00179   1.88853
    A2        1.83634  -0.00020  -0.00049   0.00007  -0.00041   1.83593
    A3        1.90082  -0.00023  -0.00011  -0.00556  -0.00569   1.89513
    A4        1.88019  -0.00015  -0.00034   0.00172   0.00138   1.88157
    A5        2.04118  -0.00079   0.00079  -0.00364  -0.00288   2.03830
    A6        1.90420   0.00112   0.00010   0.00946   0.00957   1.91377
    A7        1.93135   0.00024  -0.00026   0.00385   0.00360   1.93495
    A8        1.89159   0.00092   0.00038   0.00229   0.00260   1.89419
    A9        1.99935  -0.00182   0.00068  -0.00861  -0.00795   1.99140
   A10        1.88846  -0.00035   0.00001  -0.00016  -0.00014   1.88833
   A11        1.84739   0.00121  -0.00059   0.01099   0.01043   1.85782
   A12        1.90276  -0.00017  -0.00027  -0.00812  -0.00842   1.89434
   A13        2.19075  -0.00054  -0.00045  -0.00248  -0.00298   2.18777
   A14        1.97559  -0.00186   0.00040  -0.00747  -0.00712   1.96847
   A15        2.11683   0.00240   0.00006   0.01006   0.01008   2.12690
   A16        2.20117  -0.00151  -0.00037  -0.00654  -0.00691   2.19426
   A17        1.94233   0.00102   0.00023   0.00434   0.00457   1.94690
   A18        2.13931   0.00049   0.00014   0.00207   0.00220   2.14151
   A19        1.86647   0.00156  -0.00296   0.00862   0.00566   1.87212
   A20        1.95963  -0.00002  -0.00150  -0.01282  -0.01488   1.94474
   A21        1.94919   0.00019  -0.00155  -0.01156  -0.01369   1.93550
   A22        1.94330  -0.00178  -0.00192  -0.03264  -0.03561   1.90769
   A23        1.85127   0.00221  -0.00295   0.01286   0.00991   1.86118
    D1        1.24003   0.00013   0.00068  -0.03621  -0.03553   1.20450
    D2       -2.97508   0.00041   0.00077  -0.03277  -0.03199  -3.00707
    D3       -0.84644  -0.00035   0.00116  -0.04737  -0.04621  -0.89265
    D4       -0.73789   0.00030   0.00146  -0.03632  -0.03487  -0.77276
    D5        1.33019   0.00057   0.00155  -0.03288  -0.03132   1.29886
    D6       -2.82435  -0.00019   0.00194  -0.04749  -0.04555  -2.86990
    D7       -2.88861  -0.00050   0.00103  -0.04771  -0.04668  -2.93529
    D8       -0.82053  -0.00023   0.00113  -0.04427  -0.04313  -0.86367
    D9        1.30811  -0.00099   0.00151  -0.05888  -0.05736   1.25075
   D10       -0.23593  -0.00015  -0.00016  -0.02415  -0.02430  -0.26023
   D11        2.93472  -0.00012  -0.00037  -0.01898  -0.01935   2.91537
   D12        1.77790   0.00003  -0.00065  -0.02526  -0.02592   1.75199
   D13       -1.33463   0.00006  -0.00086  -0.02009  -0.02096  -1.35559
   D14       -2.27304  -0.00032   0.00018  -0.02226  -0.02207  -2.29511
   D15        0.89761  -0.00028  -0.00003  -0.01709  -0.01711   0.88049
   D16       -2.95284  -0.00150  -0.00254  -0.05277  -0.05503  -3.00786
   D17        1.13329   0.00074   0.00288   0.01012   0.01274   1.14603
   D18        1.18119  -0.00113  -0.00291  -0.04320  -0.04584   1.13534
   D19       -1.01587   0.00111   0.00251   0.01970   0.02192  -0.99395
   D20       -0.95717  -0.00127  -0.00312  -0.05062  -0.05348  -1.01065
   D21        3.12896   0.00098   0.00229   0.01227   0.01428  -3.13994
   D22        2.28267  -0.00005  -0.00075  -0.00625  -0.00702   2.27566
   D23       -0.86584   0.00013  -0.00093   0.01112   0.01014  -0.85570
   D24        0.14988  -0.00008  -0.00044  -0.01364  -0.01407   0.13581
   D25       -2.99864   0.00009  -0.00062   0.00372   0.00308  -2.99556
   D26       -1.87797  -0.00023   0.00000  -0.01527  -0.01522  -1.89319
   D27        1.25670  -0.00005  -0.00018   0.00209   0.00193   1.25863
   D28       -3.14092  -0.00015   0.00010  -0.01223  -0.01218   3.13009
   D29       -0.00592   0.00000  -0.00007   0.00426   0.00424  -0.00168
   D30       -3.12992  -0.00013  -0.00015  -0.00735  -0.00751  -3.13743
   D31        0.03953  -0.00006  -0.00034  -0.00223  -0.00255   0.03698
         Item               Value     Threshold  Converged?
 Maximum Force            0.003318     0.000450     NO 
 RMS     Force            0.001224     0.000300     NO 
 Maximum Displacement     0.160427     0.001800     NO 
 RMS     Displacement     0.042093     0.001200     NO 
 Predicted change in Energy=-3.610468D-04
 GradGradGradGradGradGradGradGradGradGradGradGradGradGradGradGradGradGrad

                          Input orientation:                          
 ---------------------------------------------------------------------
 Center     Atomic     Atomic              Coordinates (Angstroms)
 Number     Number      Type              X           Y           Z
 ---------------------------------------------------------------------
    1          6             0       -0.472904    0.249622    0.426728
    2          1             0       -0.246593   -0.049197    1.452056
    3          6             0        0.526433   -0.483819   -0.528080
    4          1             0        0.322436   -1.555596   -0.555277
    5          1             0        0.397143   -0.085634   -1.539179
    6          6             0        1.975029   -0.334722   -0.135623
    7          8             0        2.764153   -1.235756   -0.033265
    8          6             0       -1.867510   -0.296986    0.150264
    9          8             0       -2.440465   -1.120912    0.808623
   10          8             0       -2.395831    0.234190   -0.981517
   11          1             0       -3.277368   -0.150158   -1.095054
   12          7             0       -0.495152    1.700179    0.361646
   13          1             0       -0.822984    2.024919   -0.539332
   14          1             0        0.423540    2.083517    0.541204
   15          8             0        2.323343    0.957987    0.114679
   16          1             0        3.259030    0.949456    0.366281
 ---------------------------------------------------------------------
                    Distance matrix (angstroms):
                    1          2          3          4          5
     1  C    0.000000
     2  H    1.091699   0.000000
     3  C    1.564694   2.169655   0.000000
     4  H    2.203568   2.573405   1.091357   0.000000
     5  H    2.175814   3.059936   1.094344   1.770433   0.000000
     6  C    2.578774   2.745515   1.508206   2.097071   2.126438
     7  O    3.591168   3.560715   2.411980   2.517295   3.032045
     8  C    1.523199   2.093665   2.495199   2.622546   2.833291
     9  O    2.428066   2.525006   3.315893   3.111719   3.825702
    10  O    2.383493   3.259112   3.043151   3.282376   2.866004
    11  H    3.215690   3.960248   3.860270   3.901949   3.701816
    12  N    1.452187   2.076317   2.570038   3.479837   2.756530
    13  H    2.051221   2.932543   2.848652   3.759299   2.634926
    14  H    2.044477   2.413958   2.783014   3.802056   3.005645
    15  O    2.901405   3.067175   2.391825   3.281854   2.744929
    16  H    3.797467   3.803367   3.212670   3.968392   3.590625
                    6          7          8          9         10
     6  C    0.000000
     7  O    1.202105   0.000000
     8  C    3.853344   4.729405   0.000000
     9  O    4.583262   5.273521   1.200238   0.000000
    10  O    4.488164   5.448427   1.357276   2.245639   0.000000
    11  H    5.342494   6.229438   1.886816   2.294941   0.968360
    12  N    3.238811   4.404401   2.432430   3.455805   2.750598
    13  H    3.682359   4.873978   2.637768   3.785430   2.424064
    14  H    2.951795   4.101958   3.326940   4.306089   3.699668
    15  O    1.362009   2.242479   4.374867   5.243782   4.898584
    16  H    1.884059   2.275894   5.280311   6.079995   5.857100
                   11         12         13         14         15
    11  H    0.000000
    12  N    3.645058   0.000000
    13  H    3.326227   1.012271   0.000000
    14  H    4.622052   1.011526   1.650701   0.000000
    15  O    5.836043   2.925022   3.386067   2.248998   0.000000
    16  H    6.787426   3.828510   4.317360   3.058871   0.968962
                   16
    16  H    0.000000
 Stoichiometry    C4H7NO4
 Framework group  C1[X(C4H7NO4)]
 Deg. of freedom    42
 Full point group                 C1
 Largest Abelian subgroup         C1      NOp   1
 Largest concise Abelian subgroup C1      NOp   1
                         Standard orientation:                         
 ---------------------------------------------------------------------
 Center     Atomic     Atomic              Coordinates (Angstroms)
 Number     Number      Type              X           Y           Z
 ---------------------------------------------------------------------
    1          6             0        0.462762    0.244763   -0.430107
    2          1             0        0.233047   -0.054048   -1.454681
    3          6             0       -0.526481   -0.496899    0.528852
    4          1             0       -0.315061   -1.567302    0.553317
    5          1             0       -0.394536   -0.099364    1.539863
    6          6             0       -1.978122   -0.357076    0.144307
    7          8             0       -2.761634   -1.263307    0.044744
    8          6             0        1.862500   -0.292755   -0.161879
    9          8             0        2.437541   -1.111771   -0.824533
   10          8             0        2.393199    0.240302    0.967903
   11          1             0        3.277919   -0.138207    1.076175
   12          7             0        0.475493    1.695338   -0.362911
   13          1             0        0.805888    2.020946    0.536817
   14          1             0       -0.446725    2.072682   -0.537008
   15          8             0       -2.336540    0.933606   -0.102155
   16          1             0       -3.273470    0.919085   -0.348809
 ---------------------------------------------------------------------
 Rotational constants (GHZ):      3.1772243      0.9071405      0.7960743
 Standard basis: 6-311++G(d,p) (5D, 7F)
 There are   247 symmetry adapted basis functions of A   symmetry.
 Integral buffers will be    262144 words long.
 Raffenetti 2 integral format.
 Two-electron integral symmetry is turned on.
   247 basis functions,   387 primitive gaussians,   256 cartesian basis functions
    35 alpha electrons       35 beta electrons
       nuclear repulsion energy       463.5309821732 Hartrees.
 NAtoms=   16 NActive=   16 NUniq=   16 SFac= 7.50D-01 NAtFMM=   80 NAOKFM=F Big=F
 One-electron integrals computed using PRISM.
 NBasis=   247 RedAO= T  NBF=   247
 NBsUse=   247 1.00D-06 NBFU=   247
 Initial guess read from the read-write file:
 Initial guess orbital symmetries:
       Occupied  (A) (A) (A) (A) (A) (A) (A) (A) (A) (A) (A) (A)
                 (A) (A) (A) (A) (A) (A) (A) (A) (A) (A) (A) (A)
                 (A) (A) (A) (A) (A) (A) (A) (A) (A) (A) (A)
       Virtual   (A) (A) (A) (A) (A) (A) (A) (A) (A) (A) (A) (A)
                 (A) (A) (A) (A) (A) (A) (A) (A) (A) (A) (A) (A)
                 (A) (A) (A) (A) (A) (A) (A) (A) (A) (A) (A) (A)
                 (A) (A) (A) (A) (A) (A) (A) (A) (A) (A) (A) (A)
                 (A) (A) (A) (A) (A) (A) (A) (A) (A) (A) (A) (A)
                 (A) (A) (A) (A) (A) (A) (A) (A) (A) (A) (A) (A)
                 (A) (A) (A) (A) (A) (A) (A) (A) (A) (A) (A) (A)
                 (A) (A) (A) (A) (A) (A) (A) (A) (A) (A) (A) (A)
                 (A) (A) (A) (A) (A) (A) (A) (A) (A) (A) (A) (A)
                 (A) (A) (A) (A) (A) (A) (A) (A) (A) (A) (A) (A)
                 (A) (A) (A) (A) (A) (A) (A) (A) (A) (A) (A) (A)
                 (A) (A) (A) (A) (A) (A) (A) (A) (A) (A) (A) (A)
                 (A) (A) (A) (A) (A) (A) (A) (A) (A) (A) (A) (A)
                 (A) (A) (A) (A) (A) (A) (A) (A) (A) (A) (A) (A)
                 (A) (A) (A) (A) (A) (A) (A) (A) (A) (A) (A) (A)
                 (A) (A) (A) (A) (A) (A) (A) (A) (A) (A) (A) (A)
                 (A) (A) (A) (A) (A) (A) (A) (A) (A) (A) (A) (A)
                 (A) (A) (A) (A) (A) (A) (A) (A)
 Harris functional with IExCor=  402 diagonalized for initial guess.
 ExpMin= 3.60D-02 ExpMax= 8.59D+03 ExpMxC= 1.30D+03 IAcc=3 IRadAn=         5 AccDes= 0.00D+00
 HarFok:  IExCor= 402 AccDes= 0.00D+00 IRadAn=         5 IDoV=1
 ScaDFX=  1.000000  1.000000  1.000000  1.000000
 Requested convergence on RMS density matrix=1.00D-08 within 128 cycles.
 Requested convergence on MAX density matrix=1.00D-06.
 Requested convergence on             energy=1.00D-06.
 No special actions if energy rises.
 SCF Done:  E(RB+HF-LYP) =  -512.480810576     A.U. after   11 cycles
             Convg  =    0.7656D-08             -V/T =  2.0034
             S**2   =   0.0000
 ***** Axes restored to original set *****
 -------------------------------------------------------------------
 Center     Atomic                   Forces (Hartrees/Bohr)
 Number     Number              X              Y              Z
 -------------------------------------------------------------------
    1          6           0.001697025   -0.001928352   -0.000118463
    2          1          -0.000203168    0.000062465    0.000210624
    3          6          -0.001727471    0.000840889   -0.000480275
    4          1           0.000093826    0.000092677    0.000005172
    5          1          -0.000025146    0.000031693   -0.000494790
    6          6          -0.001568182    0.000183170    0.001815754
    7          8           0.001939243   -0.001684112   -0.000388934
    8          6           0.000837705    0.002086927   -0.002204492
    9          8          -0.001103889   -0.002571706    0.002406393
   10          8           0.000817045    0.000563599    0.000238912
   11          1          -0.000771937   -0.000139870   -0.000450707
   12          7          -0.003101995    0.000892284    0.002227014
   13          1           0.000453219    0.000679254   -0.001590300
   14          1           0.000747905    0.000278828   -0.000688091
   15          8           0.000911545    0.000055084   -0.000746202
   16          1           0.001004273    0.000557170    0.000258386
 -------------------------------------------------------------------
 Cartesian Forces:  Max     0.003101995 RMS     0.001218669

 GradGradGradGradGradGradGradGradGradGradGradGradGradGradGradGradGradGrad
 Berny optimization.
 Internal  Forces:  Max     0.003611073 RMS     0.000981851
 Search for a local minimum.
 Step number   3 out of a maximum of  79
 All quantities printed in internal units (Hartrees-Bohrs-Radians)
 Update second derivatives using D2CorX and points  1  2  3
 Trust test= 8.24D-01 RLast= 1.78D-01 DXMaxT set to 5.33D-01
     Eigenvalues ---    0.00290   0.00515   0.00710   0.00873   0.00921
     Eigenvalues ---    0.01092   0.01837   0.01909   0.02555   0.04033
     Eigenvalues ---    0.04392   0.05170   0.05433   0.06935   0.09627
     Eigenvalues ---    0.12916   0.15927   0.15996   0.16006   0.16705
     Eigenvalues ---    0.18107   0.18885   0.22858   0.24214   0.24998
     Eigenvalues ---    0.25008   0.25625   0.28550   0.30042   0.32647
     Eigenvalues ---    0.34068   0.34362   0.34403   0.37122   0.44591
     Eigenvalues ---    0.45708   0.47914   0.48759   0.50973   0.52169
     Eigenvalues ---    0.90432   0.977361000.000001000.000001000.00000
     Eigenvalues --- 1000.000001000.000001000.000001000.000001000.00000
     Eigenvalues --- 1000.000001000.000001000.000001000.000001000.00000
     Eigenvalues --- 1000.000001000.000001000.000001000.000001000.00000
     Eigenvalues --- 1000.000001000.000001000.000001000.000001000.00000
     Eigenvalues --- 1000.000001000.000001000.000001000.00000
 RFO step:  Lambda=-5.48516313D-04.
 Quartic linear search produced a step of -0.14839.
 Iteration  1 RMS(Cart)=  0.04484970 RMS(Int)=  0.00077191
 Iteration  2 RMS(Cart)=  0.00110213 RMS(Int)=  0.00018376
 Iteration  3 RMS(Cart)=  0.00000052 RMS(Int)=  0.00018376
 Variable       Old X    -DE/DX   Delta X   Delta X   Delta X     New X
                                 (Linear)    (Quad)   (Total)
    R1        2.06301   0.00014  -0.00009   0.00077   0.00068   2.06369
    R2        2.95684   0.00039   0.00125  -0.00639  -0.00514   2.95171
    R3        2.87843   0.00023  -0.00168   0.01071   0.00903   2.88746
    R4        2.74423   0.00188  -0.00110   0.01056   0.00946   2.75369
    R5        2.06237  -0.00011   0.00004  -0.00063  -0.00059   2.06177
    R6        2.06801   0.00047  -0.00005   0.00136   0.00131   2.06932
    R7        2.85010   0.00235  -0.00106   0.01260   0.01154   2.86164
    R8        2.27165   0.00250   0.00103  -0.00499  -0.00396   2.26769
    R9        2.57382   0.00098   0.00095  -0.00500  -0.00405   2.56978
   R10        2.26812   0.00361   0.00103  -0.00395  -0.00292   2.26520
   R11        2.56488   0.00033   0.00085  -0.00551  -0.00466   2.56022
   R12        1.82994   0.00081   0.00002   0.00066   0.00068   1.83061
   R13        1.91291   0.00148  -0.00070   0.00679   0.00609   1.91901
   R14        1.91151   0.00066  -0.00083   0.00608   0.00524   1.91675
   R15        1.83107   0.00103   0.00006   0.00074   0.00081   1.83188
    A1        1.88853  -0.00020   0.00027   0.00043   0.00068   1.88921
    A2        1.83593   0.00018   0.00006  -0.00417  -0.00411   1.83182
    A3        1.89513  -0.00012   0.00084  -0.00196  -0.00112   1.89401
    A4        1.88157  -0.00063  -0.00020  -0.00358  -0.00379   1.87778
    A5        2.03830   0.00153   0.00043   0.00576   0.00619   2.04449
    A6        1.91377  -0.00087  -0.00142   0.00247   0.00105   1.91483
    A7        1.93495  -0.00097  -0.00053  -0.00527  -0.00580   1.92915
    A8        1.89419  -0.00045  -0.00039   0.00648   0.00608   1.90028
    A9        1.99140   0.00291   0.00118   0.00549   0.00666   1.99806
   A10        1.88833   0.00032   0.00002  -0.00273  -0.00270   1.88562
   A11        1.85782  -0.00136  -0.00155  -0.00177  -0.00331   1.85451
   A12        1.89434  -0.00054   0.00125  -0.00276  -0.00156   1.89278
   A13        2.18777  -0.00069   0.00044  -0.00503  -0.00523   2.18253
   A14        1.96847   0.00179   0.00106   0.00010   0.00050   1.96897
   A15        2.12690  -0.00109  -0.00150   0.00551   0.00336   2.13026
   A16        2.19426  -0.00063   0.00102  -0.00844  -0.00741   2.18685
   A17        1.94690  -0.00044  -0.00068   0.00275   0.00207   1.94897
   A18        2.14151   0.00107  -0.00033   0.00569   0.00537   2.14687
   A19        1.87212   0.00074  -0.00084   0.00736   0.00652   1.87865
   A20        1.94474   0.00011   0.00221  -0.01645  -0.01460   1.93014
   A21        1.93550  -0.00019   0.00203  -0.01702  -0.01534   1.92016
   A22        1.90769  -0.00056   0.00528  -0.04151  -0.03694   1.87075
   A23        1.86118   0.00102  -0.00147   0.01265   0.01118   1.87236
    D1        1.20450  -0.00002   0.00527   0.05362   0.05889   1.26339
    D2       -3.00707  -0.00049   0.00475   0.05117   0.05590  -2.95117
    D3       -0.89265   0.00042   0.00686   0.05597   0.06284  -0.82981
    D4       -0.77276   0.00018   0.00517   0.06003   0.06520  -0.70756
    D5        1.29886  -0.00028   0.00465   0.05758   0.06221   1.36107
    D6       -2.86990   0.00062   0.00676   0.06238   0.06915  -2.80076
    D7       -2.93529   0.00075   0.00693   0.05549   0.06242  -2.87287
    D8       -0.86367   0.00029   0.00640   0.05304   0.05943  -0.80424
    D9        1.25075   0.00119   0.00851   0.05784   0.06637   1.31712
   D10       -0.26023  -0.00008   0.00361  -0.03283  -0.02923  -0.28946
   D11        2.91537  -0.00014   0.00287  -0.03309  -0.03022   2.88515
   D12        1.75199  -0.00051   0.00385  -0.03597  -0.03212   1.71987
   D13       -1.35559  -0.00056   0.00311  -0.03623  -0.03311  -1.38871
   D14       -2.29511   0.00038   0.00327  -0.02951  -0.02623  -2.32134
   D15        0.88049   0.00032   0.00254  -0.02977  -0.02723   0.85327
   D16       -3.00786  -0.00008   0.00817  -0.05486  -0.04651  -3.05437
   D17        1.14603   0.00069  -0.00189   0.02164   0.01955   1.16558
   D18        1.13534  -0.00082   0.00680  -0.05799  -0.05099   1.08435
   D19       -0.99395  -0.00005  -0.00325   0.01851   0.01507  -0.97889
   D20       -1.01065  -0.00039   0.00794  -0.05956  -0.05143  -1.06208
   D21       -3.13994   0.00037  -0.00212   0.01694   0.01462  -3.12532
   D22        2.27566  -0.00014   0.00104   0.00286   0.00385   2.27951
   D23       -0.85570  -0.00111  -0.00150  -0.06136  -0.06280  -0.91851
   D24        0.13581   0.00021   0.00209   0.00732   0.00936   0.14516
   D25       -2.99556  -0.00076  -0.00046  -0.05690  -0.05730  -3.05285
   D26       -1.89319   0.00081   0.00226   0.01278   0.01497  -1.87822
   D27        1.25863  -0.00016  -0.00029  -0.05144  -0.05168   1.20696
   D28        3.13009   0.00053   0.00181   0.03022   0.03217  -3.12093
   D29       -0.00168  -0.00040  -0.00063  -0.03138  -0.03215  -0.03383
   D30       -3.13743  -0.00003   0.00111  -0.00610  -0.00498   3.14078
   D31        0.03698  -0.00004   0.00038  -0.00603  -0.00566   0.03132
         Item               Value     Threshold  Converged?
 Maximum Force            0.003611     0.000450     NO 
 RMS     Force            0.000982     0.000300     NO 
 Maximum Displacement     0.119492     0.001800     NO 
 RMS     Displacement     0.044920     0.001200     NO 
 Predicted change in Energy=-3.004060D-04
 GradGradGradGradGradGradGradGradGradGradGradGradGradGradGradGradGradGrad

                          Input orientation:                          
 ---------------------------------------------------------------------
 Center     Atomic     Atomic              Coordinates (Angstroms)
 Number     Number      Type              X           Y           Z
 ---------------------------------------------------------------------
    1          6             0       -0.478633    0.269641    0.421273
    2          1             0       -0.245191   -0.020173    1.447971
    3          6             0        0.528741   -0.450091   -0.531069
    4          1             0        0.300740   -1.515130   -0.594977
    5          1             0        0.434825   -0.022401   -1.534745
    6          6             0        1.977643   -0.351775   -0.101930
    7          8             0        2.737010   -1.277506   -0.021863
    8          6             0       -1.865196   -0.313398    0.152523
    9          8             0       -2.396362   -1.166540    0.805884
   10          8             0       -2.427390    0.223988   -0.956830
   11          1             0       -3.298119   -0.184650   -1.071994
   12          7             0       -0.535263    1.724103    0.352416
   13          1             0       -0.831166    2.026663   -0.570693
   14          1             0        0.386235    2.115524    0.515014
   15          8             0        2.374020    0.928737    0.127011
   16          1             0        3.310406    0.900099    0.376161
 ---------------------------------------------------------------------
                    Distance matrix (angstroms):
                    1          2          3          4          5
     1  C    0.000000
     2  H    1.092060   0.000000
     3  C    1.561977   2.168040   0.000000
     4  H    2.196723   2.589704   1.091044   0.000000
     5  H    2.178463   3.059251   1.095036   1.769005   0.000000
     6  C    2.587120   2.730044   1.514313   2.099641   2.131134
     7  O    3.595886   3.554549   2.412542   2.514028   3.027235
     8  C    1.527979   2.094894   2.493375   2.587314   2.867342
     9  O    2.426567   2.520708   3.294992   3.059131   3.847495
    10  O    2.387239   3.256482   3.061759   3.255482   2.930353
    11  H    3.222690   3.962025   3.874005   3.866459   3.765014
    12  N    1.457192   2.080116   2.576775   3.476936   2.748222
    13  H    2.048268   2.933924   2.825814   3.718346   2.594378
    14  H    2.040605   2.414604   2.774343   3.797504   2.962195
    15  O    2.942554   3.083120   2.395681   3.285154   2.725174
    16  H    3.841397   3.825957   3.222381   3.979262   3.573729
                    6          7          8          9         10
     6  C    0.000000
     7  O    1.200011   0.000000
     8  C    3.851445   4.705339   0.000000
     9  O    4.540913   5.200864   1.198694   0.000000
    10  O    4.524011   5.458908   1.354810   2.245371   0.000000
    11  H    5.366807   6.222531   1.889256   2.302976   0.968719
    12  N    3.290956   4.456177   2.441330   3.467729   2.746747
    13  H    3.710271   4.893938   2.658598   3.813312   2.438579
    14  H    3.000127   4.162575   3.331667   4.312702   3.696041
    15  O    1.359867   2.240855   4.417522   5.254293   4.972416
    16  H    1.889978   2.286737   5.320662   6.084641   5.929275
                   11         12         13         14         15
    11  H    0.000000
    12  N    3.647693   0.000000
    13  H    3.350681   1.015496   0.000000
    14  H    4.624269   1.014301   1.633622   0.000000
    15  O    5.903423   3.024457   3.459111   2.347403   0.000000
    16  H    6.851747   3.933029   4.395259   3.169751   0.969389
                   16
    16  H    0.000000
 Stoichiometry    C4H7NO4
 Framework group  C1[X(C4H7NO4)]
 Deg. of freedom    42
 Full point group                 C1
 Largest Abelian subgroup         C1      NOp   1
 Largest concise Abelian subgroup C1      NOp   1
                         Standard orientation:                         
 ---------------------------------------------------------------------
 Center     Atomic     Atomic              Coordinates (Angstroms)
 Number     Number      Type              X           Y           Z
 ---------------------------------------------------------------------
    1          6             0        0.468184    0.267676   -0.423451
    2          1             0        0.226542   -0.032246   -1.445336
    3          6             0       -0.528578   -0.446187    0.544348
    4          1             0       -0.296842   -1.509927    0.615998
    5          1             0       -0.427070   -0.009013    1.543186
    6          6             0       -1.981504   -0.356032    0.127189
    7          8             0       -2.738782   -1.284662    0.062354
    8          6             0        1.858804   -0.308836   -0.161670
    9          8             0        2.386718   -1.166405   -0.811861
   10          8             0        2.429176    0.240363    0.937679
   11          1             0        3.302105   -0.164669    1.048861
   12          7             0        0.521078    1.722869   -0.368443
   13          1             0        0.824226    2.034765    0.549193
   14          1             0       -0.402986    2.110100   -0.526446
   15          8             0       -2.383711    0.921163   -0.109964
   16          1             0       -3.322173    0.887515   -0.350528
 ---------------------------------------------------------------------
 Rotational constants (GHZ):      3.1302034      0.9062428      0.7897806
 Standard basis: 6-311++G(d,p) (5D, 7F)
 There are   247 symmetry adapted basis functions of A   symmetry.
 Integral buffers will be    262144 words long.
 Raffenetti 2 integral format.
 Two-electron integral symmetry is turned on.
   247 basis functions,   387 primitive gaussians,   256 cartesian basis functions
    35 alpha electrons       35 beta electrons
       nuclear repulsion energy       462.4582673419 Hartrees.
 NAtoms=   16 NActive=   16 NUniq=   16 SFac= 7.50D-01 NAtFMM=   80 NAOKFM=F Big=F
 One-electron integrals computed using PRISM.
 NBasis=   247 RedAO= T  NBF=   247
 NBsUse=   247 1.00D-06 NBFU=   247
 Initial guess read from the read-write file:
 Initial guess orbital symmetries:
       Occupied  (A) (A) (A) (A) (A) (A) (A) (A) (A) (A) (A) (A)
[...]
    D4       -0.77251  -0.00001   0.00000  -0.01119  -0.01119  -0.78370
    D5        1.31076  -0.00001   0.00000  -0.00826  -0.00826   1.30250
    D6       -2.84913  -0.00001   0.00000  -0.00758  -0.00758  -2.85671
    D7       -2.93573   0.00000   0.00000  -0.01118  -0.01118  -2.94690
    D8       -0.85245   0.00000   0.00000  -0.00825  -0.00825  -0.86070
    D9        1.27084   0.00000   0.00000  -0.00757  -0.00757   1.26327
   D10       -0.30713  -0.00001   0.00000  -0.00384  -0.00384  -0.31097
   D11        2.87261  -0.00003   0.00000  -0.00409  -0.00409   2.86852
   D12        1.70255   0.00001   0.00000  -0.00411  -0.00411   1.69844
   D13       -1.40089  -0.00002   0.00000  -0.00437  -0.00437  -1.40526
   D14       -2.34338   0.00003   0.00000  -0.00473  -0.00473  -2.34811
   D15        0.83636   0.00000   0.00000  -0.00498  -0.00498   0.83138
   D16       -3.02200   0.00000   0.00000   0.00162   0.00162  -3.02038
   D17        1.16906   0.00002   0.00000   0.00318   0.00318   1.17224
   D18        1.11874  -0.00001   0.00000   0.00243   0.00243   1.12117
   D19       -0.97339   0.00001   0.00000   0.00399   0.00399  -0.96940
   D20       -1.02462  -0.00002   0.00000   0.00259   0.00259  -1.02203
   D21       -3.11674   0.00001   0.00000   0.00415   0.00415  -3.11260
   D22        2.01818  -0.00001   0.00000  -0.06457  -0.06457   1.95361
   D23       -1.11243  -0.00005   0.00000  -0.06048  -0.06048  -1.17291
   D24       -0.09527  -0.00001   0.00000  -0.05913  -0.05912  -0.15439
   D25        3.05731  -0.00005   0.00000  -0.05504  -0.05503   3.00227
   D26       -2.14786  -0.00001   0.00000  -0.06576  -0.06577  -2.21363
   D27        1.00471  -0.00004   0.00000  -0.06167  -0.06168   0.94303
   D28        3.13031   0.00002   0.00000  -0.00189  -0.00189   3.12841
   D29       -0.00076  -0.00002   0.00000   0.00202   0.00202   0.00126
   D30        3.13747   0.00001   0.00000  -0.00017  -0.00017   3.13730
   D31        0.03296  -0.00001   0.00000  -0.00041  -0.00041   0.03254
         Item               Value     Threshold  Converged?
 Maximum Force            0.000126     0.000450     YES
 RMS     Force            0.000034     0.000300     YES
 Maximum Displacement     0.130757     0.001800     NO 
 RMS     Displacement     0.026429     0.001200     NO 
 Predicted change in Energy=-4.728641D-06
 GradGradGradGradGradGradGradGradGradGradGradGradGradGradGradGradGradGrad

 1|1|UNPC-UNK|Freq|RB3LYP|6-311++G(d,p)|C4H7N1O4|PCUSER|29-Mar-2016|0||
 #N Geom=AllCheck Guess=Read SCRF=Check GenChk RB3LYP/6-311++G(d,p) Fre
 q||Asp-R-opt-freq-6-311++g(d,p)||0,1|C,-0.479613774,0.2340653744,0.433
 0613686|H,-0.2605141527,-0.0923996977,1.4516605895|C,0.5308165765,-0.4
 70380983,-0.5347124232|H,0.3228850554,-1.5402393327,-0.5822896067|H,0.
 4175547705,-0.0417445975,-1.534434272|C,1.9668032847,-0.3319231644,-0.
 0897560948|O,2.6871740186,-1.2355988226,0.2465371606|C,-1.8678763748,-
 0.317084013,0.1287119504|O,-2.4156506624,-1.1980229653,0.7364740418|O,
 -2.4139630361,0.2785283797,-0.9602666116|H,-3.2878509186,-0.1159208782
 ,-1.1016594273|N,-0.511164838,1.6890963677,0.407662084|H,-0.821980384,
 2.0303845849,-0.49603728|H,0.4119238054,2.0685636033,0.585698093|O,2.3
 866012754,0.9645415928,-0.0909959323|H,3.3071563542,0.9652255515,0.214
 4993599||Version=IA32W-G03RevE.01|State=1-A|HF=-512.4810508|RMSD=1.408
 e-009|RMSF=6.668e-005|ZeroPoint=0.1231539|Thermal=0.1326941|Dipole=0.2
 008953,0.85774,-0.9021345|DipoleDeriv=0.1106862,-0.0875637,-0.1242703,
 -0.2899814,0.6377469,0.1238257,-0.1757973,0.0625585,0.2100565,0.023283
 2,0.028487,-0.0108201,0.0081211,-0.0084464,0.0268666,-0.0150559,0.0307
 412,-0.0429247,-0.3787669,0.0994004,-0.0114089,0.05722,-0.1020359,-0.0
 544772,-0.0181867,-0.1121377,0.0389145,0.033579,0.0033139,0.0075865,-0
 .0198792,-0.0652251,-0.0284451,-0.0013065,-0.0080805,0.0719741,0.03639
 88,0.0083003,-0.0165885,-0.0137161,0.0546229,0.0724353,-0.0211236,0.04
 26599,-0.0199166,1.4335493,-0.119076,0.2338717,-0.0120523,1.7696855,-0
 .1778307,0.4668407,-0.230396,0.2973348,-0.930081,0.4155475,-0.1325705,
 0.2273714,-0.9664713,0.090699,-0.2585772,0.2131545,-0.3853694,1.249296
 9,0.2510251,0.2047995,0.3944947,0.9360539,-0.705692,0.3446589,-0.70357
 95,1.1996964,-0.7791081,-0.3419928,0.1787875,-0.2971306,-0.7727216,0.4
 022022,-0.0069926,0.2771393,-0.668795,-0.6707082,0.211271,-0.3989565,0
 .0918094,-0.522073,0.2642294,-0.3396222,0.3571844,-0.9470177,0.2919099
 ,-0.0589945,0.0254225,-0.0809743,0.267309,0.0257207,0.0534265,0.038804
 6,0.3258047,-0.4721083,0.0702187,0.1155831,0.1964474,-0.7173137,-0.149
 6831,0.1216426,-0.138923,-0.352213,0.2705695,-0.0579222,-0.0168802,-0.
 0430863,0.1870542,-0.0076372,-0.0542307,0.0645123,0.0571197,0.1297538,
 -0.0836763,-0.0511808,-0.0514773,0.1921457,0.0601625,-0.0397596,0.1199
 003,0.2463154,-0.6073373,-0.3871404,0.0311225,-0.2612983,-1.1733055,0.
 0338645,-0.0072152,-0.0334383,-0.3496358,0.259083,0.048802,-0.0344975,
 0.0941316,0.2829746,0.0237596,-0.0487011,0.0199002,0.3186561|Polar=83.
 179466,0.2027914,71.675209,3.0840457,-4.1503965,58.0637296|PG=C01 [X(C
 4H7N1O4)]|NImag=0||0.44751840,0.02886851,0.47366438,0.07862453,-0.0836
 8105,0.57248975,-0.05983245,0.01129206,-0.04916134,0.07011921,0.012677
 13,-0.06835241,0.06667669,-0.01807026,0.08582785,-0.05518400,0.0696505
 2,-0.27995287,0.05354564,-0.07459686,0.30035950,-0.09933482,0.00201873
 ,0.02032387,0.00125719,-0.00104751,0.00004962,0.43350719,0.00194870,-0
 .07449516,-0.00780932,-0.00383182,0.00486343,0.00257125,0.04508863,0.5
 8770489,0.02380258,-0.01114523,-0.10009242,0.02300279,-0.01275831,-0.0
 1892021,0.04289783,-0.06002114,0.49389997,0.00479659,0.01968169,-0.002
 19211,0.00041344,-0.00059923,0.00008459,-0.05747989,-0.04687571,-0.002
 38890,0.06848874,-0.00199195,-0.01091616,0.00105605,0.00004656,0.00025
 104,-0.00030408,-0.05457885,-0.30539397,-0.00982129,0.05491683,0.32900
 535,-0.00533634,-0.01780405,0.00056631,-0.00051189,0.00045869,-0.00009
 051,-0.00231680,-0.00719628,-0.05099732,0.00245287,0.01134266,0.048679
 67,0.00104711,-0.00765584,0.02229345,-0.00263729,0.00217623,0.00215004
 ,-0.04821284,0.00764208,-0.03057038,0.00018179,-0.00208619,0.00644142,
 0.05474030,0.00039097,0.00375714,-0.01567164,0.00209531,-0.00091904,-0
 .00200119,0.00693682,-0.08902964,0.09748449,0.00384029,-0.00927957,0.0
 2820011,-0.01319634,0.09279721,0.00065930,0.00706172,-0.02240372,0.003
 11394,-0.00185495,-0.00082077,-0.02961742,0.09585119,-0.26131975,0.000
 88160,-0.00088644,0.00342392,0.02835992,-0.10438139,0.28520265,-0.0278
 0790,0.01362625,0.00715587,0.00202710,-0.00084577,-0.00210505,-0.16551
 204,-0.02188790,-0.03284955,-0.00647376,0.00070129,-0.00221822,-0.0001
 2606,0.00221777,0.00001619,0.71274804,0.01650158,0.00867449,0.00777623
 ,-0.00098940,0.00095155,0.00043444,-0.01634227,-0.08179952,-0.00822990
 ,-0.03496459,-0.00623361,-0.01170342,0.01566142,-0.00045358,0.00591359
 ,-0.18635587,0.73706402,0.02348225,0.01270101,0.01281882,0.00227479,-0
 .00020071,-0.00064992,-0.02238283,-0.00811080,-0.10082658,-0.00092809,
 0.00092856,-0.00203911,-0.03219374,-0.00471415,-0.00906089,0.17564511,
 -0.11613296,0.30059527,-0.00073926,-0.00431822,-0.00653237,-0.00012384
 ,-0.00000992,0.00092514,-0.02904889,0.03629923,-0.02047573,0.00218937,
 0.00142765,0.00116674,-0.00736925,0.00005317,-0.00129088,-0.35397734,0
 .27429463,-0.11934303,0.35373192,-0.00167661,0.00101835,0.00210391,0.0
 0034332,-0.00029183,-0.00066239,0.01344153,-0.00062573,0.00625339,0.00
 149873,0.00221503,0.00036814,-0.00004874,0.00164073,-0.00093940,0.2858
 6451,-0.43994985,0.13303125,-0.33224958,0.53812169,-0.00392191,-0.0041
 2738,-0.00624301,-0.00062940,0.00021680,0.00054772,-0.02061713,0.01409
 108,0.01890292,0.00113916,0.00026541,-0.00007519,0.00221454,0.00035421
 ,0.00013952,-0.12130020,0.13037314,-0.13020741,0.14202127,-0.16405916,
 0.09372085,-0.16014433,-0.03363288,-0.02314583,-0.00773999,-0.00116102
 ,-0.00102856,-0.02632368,0.00398216,0.00528030,-0.00027268,-0.00051436
 ,0.00009539,0.00192239,-0.00020687,-0.00132600,-0.00640520,0.00047104,
 -0.00242374,0.00320973,-0.00152667,0.00178295,0.61953810,-0.01825723,-
 0.08186052,-0.01047789,0.00935956,0.00316894,0.00389626,0.01387119,0.0
 0881091,0.00600895,0.00262097,-0.00154882,-0.00123914,-0.00127347,-0.0
 0026001,0.00044377,-0.00258017,-0.00135947,-0.00597231,0.00293685,-0.0
 0185237,0.00258693,0.25330963,0.63505257,-0.02637025,-0.01534034,-0.08
 465756,-0.03205904,-0.01101325,-0.00930446,0.02546295,0.00712014,0.004
 31618,-0.00050331,0.00022317,0.00207531,0.00228080,0.00104448,-0.00142
 170,-0.00047756,-0.00448212,-0.00734902,0.00146635,0.00020944,0.002049
 21,-0.02216624,-0.27355001,0.52235022,-0.00891780,-0.03313417,0.017188
 57,0.00178200,-0.00023340,0.00145529,-0.00198964,-0.00227655,-0.001119
 57,-0.00005435,0.00005964,-0.00034855,-0.00043293,-0.00026445,0.000158
 02,0.00287619,0.00021844,0.00245503,-0.00185356,0.00092897,-0.00122292
 ,-0.25793213,-0.22995730,0.13273757,0.23690886,-0.02169848,-0.00582689
 ,0.01929857,0.00109784,-0.00002543,-0.00040867,-0.00442928,-0.00511302
 ,-0.00284611,-0.00058706,0.00107955,0.00051870,0.00030135,0.00025885,-
 0.00017992,0.00256607,0.00042881,0.00326984,-0.00201805,0.00138916,-0.
 00167056,-0.23861218,-0.43173994,0.23329853,0.26688002,0.47476287,-0.0
 0037553,0.00856376,0.00958277,0.00223663,-0.00010890,0.00239381,-0.002
 61946,-0.00074775,0.00054414,0.00002017,-0.00011518,-0.00033131,-0.000
 47032,-0.00006164,0.00054544,-0.00045910,0.00092581,0.00050252,0.00027
 013,-0.00043215,0.00013320,0.14243890,0.23928544,-0.24621977,-0.155727
 16,-0.31603686,0.27952398,-0.01773489,0.01355178,-0.03642408,-0.006426
 58,-0.00285653,-0.00127357,-0.00068874,-0.00137594,-0.00150082,-0.0000
 2222,0.00017077,-0.00003601,-0.00025911,-0.00000357,-0.00006367,0.0026
 3620,0.00052763,0.00116575,-0.00147832,0.00049766,-0.00060234,-0.14857
 850,0.01106021,-0.07143419,0.03708167,0.00011479,0.00579366,0.53766225
 ,-0.00554825,0.00666863,-0.00431081,-0.00266555,-0.00015681,-0.0010412
 5,-0.00046255,0.00016380,-0.00018766,-0.00046815,0.00037622,0.00023285
 ,0.00034391,-0.00014173,-0.00021877,-0.00027042,-0.00067740,0.00006179
 ,-0.00011186,0.00045204,-0.00016693,-0.00296336,-0.11031139,0.05366712
 ,0.00654283,-0.03006971,0.07282774,0.17249276,0.24374985,-0.01236483,0
 .00943703,-0.01009266,-0.00135729,-0.00063973,0.00070391,-0.00128939,-
 0.00134268,-0.00214395,0.00024002,0.00011370,-0.00064463,-0.00088395,-
 0.00066112,0.00088008,0.00108275,0.00103360,0.00201920,-0.00065243,-0.
 00003281,-0.00046826,-0.05522183,0.06232560,-0.17376762,-0.00139533,0.
 06849618,-0.05084229,0.14522550,-0.11760168,0.27711564,0.00225164,0.00
 131572,-0.00419196,-0.00077059,-0.00031512,-0.00008071,0.00064353,0.00
 000234,0.00021134,-0.00015523,0.00016391,0.00000848,-0.00008563,-0.000
 04331,0.00010904,-0.00044396,-0.00010457,-0.00018691,0.00030067,-0.000
 06280,0.00012036,-0.02636410,-0.00622122,-0.01379015,0.00175775,-0.002
 44179,0.00802062,-0.39779580,-0.16535475,-0.07041089,0.41986061,0.0001
 0741,0.00050059,0.00492595,0.00081436,0.00055126,0.00027158,-0.0007560
 7,0.00004429,-0.00004196,0.00007330,-0.00009592,-0.00002818,-0.0000005
 5,0.00001253,0.00000216,0.00010192,0.00014162,0.00025854,-0.00005509,-
 0.00005950,-0.00006703,0.02074472,0.01495510,0.00121800,-0.00190679,-0
 .00535914,-0.00199271,-0.19180888,-0.11216376,-0.01900691,0.17266936,0
 .10097833,-0.00213282,0.00496892,-0.00295913,-0.00109470,-0.00023431,-
 0.00011387,-0.00032709,-0.00002024,-0.00019710,0.00000770,-0.00001976,
 0.00009372,-0.00013676,0.00012432,0.00023301,-0.00026451,0.00007118,0.
 00016640,0.00016666,-0.00008332,-0.00001646,-0.04562797,-0.01738074,-0
 .00728915,0.00745108,-0.00217524,0.00186107,-0.03842650,-0.00052204,-0
 .04257814,0.07930444,0.01508083,0.05044883,-0.08326318,-0.01852254,-0.
 02823079,0.00128690,0.01271357,0.00049571,0.00528883,0.02369407,0.0002
 3638,-0.00321682,0.00241181,0.00280565,0.00118759,-0.00129904,-0.00144
 388,0.00162907,-0.00355109,-0.00119893,-0.00073387,0.00150030,-0.00016
 288,0.00412471,-0.03417341,-0.00038764,-0.00838939,-0.00153408,0.00231
 925,-0.00199387,-0.00207078,-0.00133403,0.00069226,0.00001793,0.001186
 15,0.51939050,0.01380269,-0.20976785,-0.00638412,0.00095293,-0.0200998
 5,0.00212547,0.01030646,-0.03205121,-0.00625397,0.00387658,-0.00133704
 ,-0.00261499,-0.00210797,0.00239956,0.00139900,-0.00750449,-0.00406104
 ,-0.00339287,0.00290824,0.00006222,0.00224170,-0.00615742,-0.02523209,
 -0.00027063,-0.00359635,0.00000014,-0.00065755,-0.00166786,0.00014093,
 -0.00025947,0.00063793,-0.00022337,0.00072260,0.11314468,0.47465742,-0
 .02594034,0.02961765,-0.08437539,0.00041968,0.03313849,0.00375852,0.00
 103530,-0.02307923,0.00162785,0.00387545,-0.00262421,-0.00158344,-0.00
 189641,0.00001316,0.00347538,-0.00212061,0.00074559,-0.00121332,0.0013
 9346,-0.00077939,0.00107720,0.00312225,-0.00895334,-0.00084901,-0.0025
 7966,-0.00114040,0.00226656,-0.00116502,-0.00071153,-0.00021170,0.0004
 7447,-0.00016186,0.00037320,0.21261361,-0.11741867,0.46368913,-0.00202
 668,0.00381355,0.00159101,0.00082927,-0.00217597,0.00053404,0.00036278
 ,-0.00054164,-0.00163349,0.00026941,-0.00034940,0.00029941,0.00006877,
 0.00041848,0.00050182,-0.00081829,0.00040789,-0.00053172,0.00041584,-0
 .00033468,0.00022946,0.00306387,-0.00289410,0.00438825,-0.00039260,0.0
 0088352,-0.00144413,-0.00191154,0.00082006,-0.00134008,-0.00029256,0.0
 0016232,-0.00019642,-0.06680673,0.01610341,-0.09803309,0.07853444,0.01
 296063,-0.01682360,0.03859928,-0.00045448,-0.00654864,-0.00090554,-0.0
 0020631,0.00137378,0.00100953,-0.00034844,0.00036200,-0.00029393,0.000
 61975,-0.00020533,-0.00112753,0.00043746,-0.00050402,0.00008632,-0.000
 39448,0.00028687,-0.00016073,0.00075975,-0.00139432,0.00360765,-0.0000
 3252,0.00086565,-0.00123935,0.00008760,0.00003971,-0.00095839,-0.00032
 000,0.00075822,-0.00052610,0.02058113,-0.08956974,0.10053191,-0.029953
 73,0.10535546,0.00497980,-0.00355370,-0.00265377,0.00010941,0.00076617
 ,0.00187511,-0.00031795,-0.00141476,0.00209177,0.00018412,-0.00018303,
 -0.00031852,-0.00038381,0.00031367,0.00008496,0.00035254,0.00017217,0.
 00003526,-0.00005632,-0.00005976,0.00002295,-0.00065745,0.00123341,-0.
 00058496,0.00014148,-0.00015314,0.00020461,-0.00087420,-0.00169003,-0.
 00019033,0.00015464,-0.00011211,-0.00001897,-0.13604885,0.12726963,-0.
 34623657,0.12848403,-0.12352589,0.35288288,0.00245908,0.00422253,0.004
 00720,0.00006666,-0.00027318,-0.00012288,0.00066323,0.00118365,0.00025
 324,-0.00042378,0.00015436,0.00008723,0.00011932,-0.00010193,-0.000097
 19,0.00188167,0.00464994,0.00014531,0.00004078,-0.00164427,0.00022009,
 0.00009549,0.00154996,0.00045171,0.00024821,-0.00024702,-0.00010842,0.
 00021377,-0.00045416,0.00010102,0.00018081,-0.00004319,0.00002067,-0.3
 6573325,-0.14347533,-0.09326240,-0.01105192,-0.00352956,0.00386402,0.3
 7514122,-0.03835201,-0.01897453,-0.00908603,0.00013064,0.00071184,0.00
 053185,-0.00031625,0.00157892,-0.00019114,-0.00014321,0.00038232,0.000
 36545,0.00025479,-0.00013573,-0.00033940,0.00087849,-0.00387613,-0.000
 78841,-0.00041727,0.00111751,-0.00031710,0.00466361,-0.00681805,0.0022
 0699,-0.00294639,-0.00068365,0.00022533,-0.00027709,0.00131577,-0.0003
 1441,-0.00005871,0.00009976,0.00003522,-0.11564969,-0.09797535,-0.0087
 9090,0.01364662,0.00578620,0.00118448,0.13968426,0.11594584,0.00235936
 ,-0.00389079,-0.00089420,0.00042733,0.00019542,0.00002713,-0.00188585,
 0.00044308,0.00056416,-0.00000360,0.00027526,0.00010432,0.00001708,-0.
 00024199,-0.00042167,0.00102230,-0.00144700,0.00148241,-0.00078083,0.0
 0110476,-0.00080660,-0.00133518,0.00122672,-0.00032923,0.00100035,-0.0
 0004452,-0.00005639,-0.00030755,-0.00046984,0.00037164,0.00020623,-0.0
 0029977,0.00003136,-0.05150391,0.00347236,-0.04288630,-0.03349858,-0.0
 1522311,-0.00709182,0.08480453,0.01415089,0.05071754,0.00139316,-0.001
 52390,-0.00137581,-0.00012355,0.00004609,0.00043524,-0.01646352,-0.039
 88148,-0.00492093,-0.00758853,-0.00063351,-0.00228108,-0.00024805,-0.0
 0113669,0.00025234,-0.14017731,-0.05890924,-0.01826943,0.03491703,0.02
 528848,-0.00059831,0.00214180,0.00090209,0.00053305,-0.00089346,-0.000
 42044,0.00008570,-0.00092786,0.00013938,-0.00056484,0.00023937,-0.0001
 2193,0.00008306,-0.00359982,0.00254646,0.00183102,-0.00018879,-0.00026
 916,0.00001006,-0.00309257,-0.00116205,-0.00025539,0.57322430,0.000338
 97,-0.00689520,-0.00319451,-0.00004483,0.00000952,0.00038433,-0.012853
 35,-0.00933498,-0.00014969,-0.00089544,0.00123411,-0.00011764,-0.00095
 876,-0.00049652,-0.00072070,-0.03232931,-0.20895571,0.00654711,0.01430
 764,-0.10688266,0.01905077,0.00108449,0.00056038,0.00215415,-0.0004327
 3,-0.00008510,-0.00044443,-0.00065601,0.00059208,-0.00069400,0.0001474
 7,-0.00014649,-0.00002594,0.00168503,0.00332109,0.00019913,0.00017342,
 0.00011489,-0.00023545,-0.00156006,0.00063380,-0.00003506,0.04055390,0
 .37503879,-0.00136041,-0.00204009,-0.00109176,-0.00037727,-0.00006919,
 0.00028674,-0.00774593,-0.01045763,0.00856450,-0.00274705,-0.00026499,
 0.00045062,0.00209892,0.00010032,0.00114383,-0.02091920,-0.00247969,-0
 .06969972,0.00045100,0.02235609,0.02689252,0.00014704,0.00046031,0.000
 71568,-0.00014667,-0.00019388,-0.00002498,0.00001455,0.00012047,0.0000
 0734,0.00005691,-0.00005242,-0.00004460,0.00020907,-0.00009819,0.00119
 387,0.00063247,0.00015412,-0.00011419,-0.00023524,0.00077526,-0.001234
 97,0.16865945,-0.02267854,0.09783781,0.00033532,0.00039672,0.00006978,
 -0.00012749,-0.00002510,0.00011945,0.00333130,-0.00316981,-0.00022508,
 -0.00065209,0.00010143,-0.00030830,0.00010387,0.00029941,-0.00021312,-
 0.02205641,-0.01151554,-0.00770982,0.00051898,0.00817984,0.00132727,-0
 .00033546,-0.00025354,-0.00013229,0.00020119,0.00014479,0.00001906,0.0
 0022356,0.00003088,0.00016560,-0.00001877,0.00000119,-0.00001299,0.000
 13707,0.00023004,0.00023228,-0.00005525,0.00006237,0.00005848,-0.00080
 873,0.00006427,-0.00026629,-0.43861221,-0.00856043,-0.13873764,0.45781
 512,-0.00007207,-0.00037123,0.00017869,-0.00007625,0.00005856,0.000054
 27,-0.00067093,-0.00669679,0.00089004,-0.00162653,-0.00010053,-0.00048
 897,0.00032834,0.00005513,-0.00002294,-0.05461983,0.00060983,-0.017572
 21,0.00734707,0.00335835,0.00138884,-0.00024063,-0.00017091,-0.0000933
 1,0.00015077,0.00011784,0.00000843,0.00014270,0.00002178,0.00010507,-0
 .00001445,0.00000648,-0.00001538,0.00105212,-0.00026382,-0.00058640,-0
 .00017976,0.00010288,-0.00001166,-0.00011602,0.00089149,0.00078361,0.0
 3458200,-0.04870799,0.01436806,0.01401349,0.05108893,-0.00092139,-0.00
 041799,-0.00004116,0.00006072,0.00002394,-0.00009983,-0.00064970,0.000
 12309,0.00398584,-0.00012262,0.00001415,0.00068615,0.00067921,0.000098
 37,0.00031971,-0.00256075,-0.00297067,0.00342609,0.00127083,0.00162142
 ,-0.00566915,0.00006597,0.00010604,0.00026588,-0.00004752,-0.00003251,
 -0.00008339,-0.00009151,0.00001057,-0.00015824,-0.00000592,0.00000589,
 0.00000981,0.00044508,0.00011969,-0.00010598,0.00001700,-0.00002823,0.
 00001160,-0.00012890,0.00035192,0.00042261,-0.14362412,-0.00003954,-0.
 06488268,0.14561362,0.00101384,0.06191273||-0.00005788,0.00022293,0.00
 008648,0.00000738,-0.00003351,-0.00000896,0.00005011,-0.00007537,-0.00
 004033,-0.00002248,0.00000517,0.00001590,0.00001022,-0.00002873,-0.000
 00548,0.00013503,0.00006005,-0.00002764,-0.00008682,0.00002630,-0.0000
 3172,-0.00016367,-0.00010254,0.00008604,0.00009812,0.00007555,-0.00005
 219,0.00002178,0.00000357,-0.00003843,0.00001543,0.00000163,0.00000452
 ,0.00008428,-0.00014122,-0.00007522,-0.00000114,0.00000654,0.00002621,
 -0.00004372,0.00001976,0.00000389,-0.00003715,-0.00004860,0.00005983,-
 0.00000948,0.00000848,-0.00000290|||@


 The theorems and results in mathematical physics are
 not theorems and results about Nature, but about our
 description of it.
                   --Gerard 't Hooft
 Job cpu time:  0 days  0 hours 36 minutes  0.0 seconds.
 File lengths (MBytes):  RWF=     99 Int=      0 D2E=      0 Chk=      8 Scr=      1
 Normal termination of Gaussian 03 at Tue Mar 29 17:14:31 2016.
