 Entering Gaussian System, Link 0=g09
 Input=Ala-S-opt-freq-pb1-6-31g.com
 Output=Ala-S-opt-freq-pb1-6-31g.log
 Initial command:
 /usr/local/gau/g09/l1.exe "/tmp/Gau-9947.inp" -scrdir="/tmp/"
 Entering Link 1 = /usr/local/gau/g09/l1.exe PID=      9949.
  
 Copyright (c) 1988,1990,1992,1993,1995,1998,2003,2009,2013,
            Gaussian, Inc.  All Rights Reserved.
  
 This is part of the Gaussian(R) 09 program.  It is based on
 the Gaussian(R) 03 system (copyright 2003, Gaussian, Inc.),
 the Gaussian(R) 98 system (copyright 1998, Gaussian, Inc.),
 the Gaussian(R) 94 system (copyright 1995, Gaussian, Inc.),
 the Gaussian 92(TM) system (copyright 1992, Gaussian, Inc.),
 the Gaussian 90(TM) system (copyright 1990, Gaussian, Inc.),
 the Gaussian 88(TM) system (copyright 1988, Gaussian, Inc.),
 the Gaussian 86(TM) system (copyright 1986, Carnegie Mellon
 University), and the Gaussian 82(TM) system (copyright 1983,
 Carnegie Mellon University). Gaussian is a federally registered
 trademark of Gaussian, Inc.
  
 This software contains proprietary and confidential information,
 including trade secrets, belonging to Gaussian, Inc.
  
 This software is provided under written license and may be
 used, copied, transmitted, or stored only in accord with that
 written license.
  
 The following legend is applicable only to US Government
 contracts under FAR:
  
                    RESTRICTED RIGHTS LEGEND
  
 Use, reproduction and disclosure by the US Government is
 subject to restrictions as set forth in subparagraphs (a)
 and (c) of the Commercial Computer Software - Restricted
 Rights clause in FAR 52.227-19.
  
 Gaussian, Inc.
 340 Quinnipiac St., Bldg. 40, Wallingford CT 06492
  
  
 ---------------------------------------------------------------
 Warning -- This program may not be used in any manner that
 competes with the business of Gaussian, Inc. or will provide
 assistance to any competitor of Gaussian, Inc.  The licensee
 of this program is prohibited from giving any competitor of
 Gaussian, Inc. access to this program.  By using this program,
 the user acknowledges that Gaussian, Inc. is engaged in the
 business of creating and licensing software in the field of
 computational chemistry and represents and warrants to the
 licensee that it is not a competitor of Gaussian, Inc. and that
 it will not use this program in any manner prohibited above.
 ---------------------------------------------------------------
  

 Cite this work as:
 Gaussian 09, Revision D.01,
 M. J. Frisch, G. W. Trucks, H. B. Schlegel, G. E. Scuseria, 
 M. A. Robb, J. R. Cheeseman, G. Scalmani, V. Barone, B. Mennucci, 
 G. A. Petersson, H. Nakatsuji, M. Caricato, X. Li, H. P. Hratchian, 
 A. F. Izmaylov, J. Bloino, G. Zheng, J. L. Sonnenberg, M. Hada, 
 M. Ehara, K. Toyota, R. Fukuda, J. Hasegawa, M. Ishida, T. Nakajima, 
 Y. Honda, O. Kitao, H. Nakai, T. Vreven, J. A. Montgomery, Jr., 
 J. E. Peralta, F. Ogliaro, M. Bearpark, J. J. Heyd, E. Brothers, 
 K. N. Kudin, V. N. Staroverov, T. Keith, R. Kobayashi, J. Normand, 
 K. Raghavachari, A. Rendell, J. C. Burant, S. S. Iyengar, J. Tomasi, 
 M. Cossi, N. Rega, J. M. Millam, M. Klene, J. E. Knox, J. B. Cross, 
 V. Bakken, C. Adamo, J. Jaramillo, R. Gomperts, R. E. Stratmann, 
 O. Yazyev, A. J. Austin, R. Cammi, C. Pomelli, J. W. Ochterski, 
 R. L. Martin, K. Morokuma, V. G. Zakrzewski, G. A. Voth, 
 P. Salvador, J. J. Dannenberg, S. Dapprich, A. D. Daniels, 
 O. Farkas, J. B. Foresman, J. V. Ortiz, J. Cioslowski, 
 and D. J. Fox, Gaussian, Inc., Wallingford CT, 2013.
 
 ******************************************
 Gaussian 09:  ES64L-G09RevD.01 24-Apr-2013
                13-Apr-2016 
 ******************************************
 %chk=Ala-S-opt-freq-pb1-6-31g.chk
 --------------------
 #p freq rb3lyp/6-31g
 --------------------
 1/10=4,30=1,38=1/1,3;
 2/12=2,17=6,18=5,40=1/2;
 3/5=1,6=6,11=2,16=1,25=1,30=1,71=2,74=-5,116=1,140=1/1,2,3;
 4//1;
 5/5=2,38=5,98=1/2;
 8/6=4,10=90,11=11/1;
 11/6=1,8=1,9=11,15=111,16=1/1,2,10;
 10/6=1/2;
 6/7=2,8=2,9=2,10=2,18=1,28=1/1;
 7/8=1,10=1,25=1/1,2,3,16;
 1/10=4,30=1/3;
 99//99;
 Leave Link    1 at Wed Apr 13 00:14:39 2016, MaxMem=           0 cpu:         0.0
 (Enter /usr/local/gau/g09/l101.exe)
 ------------------------
 Ala-S-opt-freq-pb1-6-31g
 ------------------------
 Symbolic Z-matrix:
 Charge =  0 Multiplicity = 1
 N                    -1.26074  -1.30842  -0.37778 
 H                    -1.89321  -1.90883   0.12888 
 C                    -0.61968  -0.2404    0.36895 
 H                    -0.46488  -0.94206   1.02057 
 C                    -1.39069   1.05509   0.5214 
 C                     0.80161  -0.18082   0.14779 
 H                    -2.30785   0.87696   1.09584 
 H                    -0.81138   1.82191   1.04827 
 H                    -1.69339   1.47569  -0.45285 
 O                     1.4293   -1.2256    0.65186 
 H                    -1.58453  -1.08119  -1.31356 
 O                     1.49364   0.84639  -0.37235 
 H                     2.46096   0.7534   -0.23151 
 
 NAtoms=     13 NQM=       13 NQMF=       0 NMMI=      0 NMMIF=      0
                NMic=       0 NMicF=      0.
                    Isotopes and Nuclear Properties:
 (Nuclear quadrupole moments (NQMom) in fm**2, nuclear magnetic moments (NMagM)
  in nuclear magnetons)

  Atom         1           2           3           4           5           6           7           8           9          10
 IAtWgt=          14           1          12           1          12          12           1           1           1          16
 AtmWgt=  14.0030740   1.0078250  12.0000000   1.0078250  12.0000000  12.0000000   1.0078250   1.0078250   1.0078250  15.9949146
 NucSpn=           2           1           0           1           0           0           1           1           1           0
 AtZEff=   0.0000000   0.0000000   0.0000000   0.0000000   0.0000000   0.0000000   0.0000000   0.0000000   0.0000000   0.0000000
 NQMom=    2.0440000   0.0000000   0.0000000   0.0000000   0.0000000   0.0000000   0.0000000   0.0000000   0.0000000   0.0000000
 NMagM=    0.4037610   2.7928460   0.0000000   2.7928460   0.0000000   0.0000000   2.7928460   2.7928460   2.7928460   0.0000000
 AtZNuc=   7.0000000   1.0000000   6.0000000   1.0000000   6.0000000   6.0000000   1.0000000   1.0000000   1.0000000   8.0000000

  Atom        11          12          13
 IAtWgt=           1          16           1
 AtmWgt=   1.0078250  15.9949146   1.0078250
 NucSpn=           1           0           1
 AtZEff=   0.0000000   0.0000000   0.0000000
 NQMom=    0.0000000   0.0000000   0.0000000
 NMagM=    2.7928460   0.0000000   2.7928460
 AtZNuc=   1.0000000   8.0000000   1.0000000
 Leave Link  101 at Wed Apr 13 00:14:40 2016, MaxMem=    33554432 cpu:         0.1
 (Enter /usr/local/gau/g09/l103.exe)

 GradGradGradGradGradGradGradGradGradGradGradGradGradGradGradGradGradGrad
 Berny optimization.
 Initialization pass.
 Trust Radius=3.00D-01 FncErr=1.00D-07 GrdErr=1.00D-07
 Number of steps in this run=      2 maximum allowed number of steps=      2.
 GradGradGradGradGradGradGradGradGradGradGradGradGradGradGradGradGradGrad

 Leave Link  103 at Wed Apr 13 00:14:40 2016, MaxMem=    33554432 cpu:         0.0
 (Enter /usr/local/gau/g09/l202.exe)
                          Input orientation:                          
 ---------------------------------------------------------------------
 Center     Atomic      Atomic             Coordinates (Angstroms)
 Number     Number       Type             X           Y           Z
 ---------------------------------------------------------------------
      1          7           0       -1.260738   -1.308417   -0.377783
      2          1           0       -1.893211   -1.908831    0.128878
      3          6           0       -0.619685   -0.240405    0.368948
      4          1           0       -0.464881   -0.942064    1.020570
      5          6           0       -1.390687    1.055088    0.521400
      6          6           0        0.801613   -0.180822    0.147793
      7          1           0       -2.307850    0.876958    1.095841
      8          1           0       -0.811381    1.821905    1.048273
      9          1           0       -1.693389    1.475686   -0.452846
     10          8           0        1.429299   -1.225602    0.651855
     11          1           0       -1.584528   -1.081193   -1.313561
     12          8           0        1.493641    0.846394   -0.372353
     13          1           0        2.460960    0.753401   -0.231507
 ---------------------------------------------------------------------
                    Distance matrix (angstroms):
                    1          2          3          4          5
     1  N    0.000000
     2  H    1.008575   0.000000
     3  C    1.452310   2.112616   0.000000
     4  H    1.650149   1.941618   0.970000   0.000000
     5  C    2.532108   3.031735   1.515252   2.257189   0.000000
     6  C    2.408525   3.201320   1.439635   1.716169   2.544255
     7  H    2.836173   2.977845   2.150994   2.590567   1.096768
     8  H    3.469074   3.991746   2.179760   2.785741   1.095992
     9  H    2.818519   3.439955   2.184755   3.086373   1.103488
    10  O    2.881547   3.432110   2.291066   1.950452   3.629172
    11  H    1.015948   1.691420   2.113926   2.592515   2.822827
    12  O    3.497119   4.394686   2.489338   2.995768   3.026829
    13  H    4.257173   5.116264   3.292198   3.605946   3.936124
                    6          7          8          9         10
     6  C    0.000000
     7  H    3.418546   0.000000
     8  H    2.724615   1.770482   0.000000
     9  H    3.054476   1.770443   1.775152   0.000000
    10  O    1.318952   4.310935   3.803300   4.274167   0.000000
    11  H    2.939369   3.187910   3.821517   2.700058   3.600954
    12  O    1.343364   4.075274   2.878007   3.249561   2.312209
    13  H    1.941668   4.951633   3.672568   4.222476   2.400230
                   11         12         13
    11  H    0.000000
    12  O    3.751878   0.000000
    13  H    4.571931   0.981932   0.000000
 Stoichiometry    C3H7NO2
 Framework group  C1[X(C3H7NO2)]
 Deg. of freedom    33
 Full point group                 C1      NOp   1
 Largest Abelian subgroup         C1      NOp   1
 Largest concise Abelian subgroup C1      NOp   1
                         Standard orientation:                         
 ---------------------------------------------------------------------
 Center     Atomic      Atomic             Coordinates (Angstroms)
 Number     Number       Type             X           Y           Z
 ---------------------------------------------------------------------
      1          7           0        1.297359   -1.138931    0.521584
      2          1           0        1.944803   -1.720978    0.012406
      3          6           0        0.644107   -0.071996   -0.216058
      4          1           0        0.507498   -0.767069   -0.878713
      5          6           0        1.393369    1.238858   -0.343559
      6          6           0       -0.779917   -0.040509   -0.006985
      7          1           0        2.318569    1.084942   -0.912079
      8          1           0        0.805246    2.002680   -0.864986
      9          1           0        1.679979    1.651022    0.639122
     10          8           0       -1.384542   -1.088997   -0.531138
     11          1           0        1.608815   -0.919183    1.463315
     12          8           0       -1.494578    0.966996    0.521049
     13          1           0       -2.458820    0.858996    0.370170
 ---------------------------------------------------------------------
 Rotational constants (GHZ):      4.8876819      3.0365857      2.1922977
 Leave Link  202 at Wed Apr 13 00:14:40 2016, MaxMem=    33554432 cpu:         0.0
 (Enter /usr/local/gau/g09/l301.exe)
 Standard basis: 6-31G (6D, 7F)
 Ernie: Thresh=  0.10000D-02 Tol=  0.10000D-05 Strict=F.
 There are    68 symmetry adapted cartesian basis functions of A   symmetry.
 There are    68 symmetry adapted basis functions of A   symmetry.
    68 basis functions,   160 primitive gaussians,    68 cartesian basis functions
    24 alpha electrons       24 beta electrons
       nuclear repulsion energy       247.3653255519 Hartrees.
 IExCor=  402 DFT=T Ex+Corr=B3LYP ExCW=0 ScaHFX=  0.200000
 ScaDFX=  0.800000  0.720000  1.000000  0.810000 ScalE2=  1.000000  1.000000
 IRadAn=      0 IRanWt=     -1 IRanGd=            0 ICorTp=0 IEmpDi=  4
 NAtoms=   13 NActive=   13 NUniq=   13 SFac= 1.00D+00 NAtFMM=   60 NAOKFM=F Big=F
 Integral buffers will be    131072 words long.
 Raffenetti 2 integral format.
 Two-electron integral symmetry is turned on.
 Leave Link  301 at Wed Apr 13 00:14:40 2016, MaxMem=    33554432 cpu:         0.0
 (Enter /usr/local/gau/g09/l302.exe)
 NPDir=0 NMtPBC=     1 NCelOv=     1 NCel=       1 NClECP=     1 NCelD=      1
         NCelK=      1 NCelE2=     1 NClLst=     1 CellRange=     0.0.
 One-electron integrals computed using PRISM.
 NBasis=    68 RedAO= T EigKep=  3.41D-03  NBF=    68
 NBsUse=    68 1.00D-06 EigRej= -1.00D+00 NBFU=    68
 Precomputing XC quadrature grid using
 IXCGrd= 4 IRadAn=           0 IRanWt=          -1 IRanGd=           0 AccXCQ= 0.00D+00.
 Generated NRdTot=       0 NPtTot=           0 NUsed=           0 NTot=          32
 NSgBfM=    68    68    68    68    68 MxSgAt=    13 MxSgA2=    13.
 Leave Link  302 at Wed Apr 13 00:14:41 2016, MaxMem=    33554432 cpu:         0.2
 (Enter /usr/local/gau/g09/l303.exe)
 DipDrv:  MaxL=1.
 Leave Link  303 at Wed Apr 13 00:14:41 2016, MaxMem=    33554432 cpu:         0.0
 (Enter /usr/local/gau/g09/l401.exe)
 ExpMin= 1.61D-01 ExpMax= 5.48D+03 ExpMxC= 8.25D+02 IAcc=1 IRadAn=         1 AccDes= 0.00D+00
 Harris functional with IExCor=  402 and IRadAn=       1 diagonalized for initial guess.
 HarFok:  IExCor=  402 AccDes= 0.00D+00 IRadAn=         1 IDoV= 1 UseB2=F ITyADJ=14
 ICtDFT=  3500011 ScaDFX=  1.000000  1.000000  1.000000  1.000000
 FoFCou: FMM=F IPFlag=           0 FMFlag=      100000 FMFlg1=           0
         NFxFlg=           0 DoJE=T BraDBF=F KetDBF=T FulRan=T
         wScrn=  0.000000 ICntrl=     500 IOpCl=  0 I1Cent=   200000004 NGrid=           0
         NMat0=    1 NMatS0=      1 NMatT0=    0 NMatD0=    1 NMtDS0=    0 NMtDT0=    0
 Petite list used in FoFCou.
 Harris En= -323.617968213869    
 JPrj=0 DoOrth=F DoCkMO=F.
 Leave Link  401 at Wed Apr 13 00:14:43 2016, MaxMem=    33554432 cpu:         0.6
 (Enter /usr/local/gau/g09/l502.exe)
 Closed shell SCF:
 Using DIIS extrapolation, IDIIS=  1040.
 Integral symmetry usage will be decided dynamically.
 Keep R1 ints in memory in canonical form, NReq=3676491.
 IVT=       33364 IEndB=       33364 NGot=    33554432 MDV=    30768038
 LenX=    30768038 LenY=    30762973
 Requested convergence on RMS density matrix=1.00D-08 within 128 cycles.
 Requested convergence on MAX density matrix=1.00D-06.
 Requested convergence on             energy=1.00D-06.
 No special actions if energy rises.
 FoFCou: FMM=F IPFlag=           0 FMFlag=           0 FMFlg1=           0
         NFxFlg=           0 DoJE=F BraDBF=F KetDBF=F FulRan=T
         wScrn=  0.000000 ICntrl=     600 IOpCl=  0 I1Cent=           0 NGrid=           0
         NMat0=    1 NMatS0=   2346 NMatT0=    0 NMatD0=    1 NMtDS0=    0 NMtDT0=    0
 Symmetry not used in FoFCou.
 Integral accuracy reduced to 1.0D-05 until final iterations.

 Cycle   1  Pass 0  IDiag  1:
 E= -323.319570948722    
 DIIS: error= 3.87D-02 at cycle   1 NSaved=   1.
 NSaved= 1 IEnMin= 1 EnMin= -323.319570948722     IErMin= 1 ErrMin= 3.87D-02
 ErrMax= 3.87D-02  0.00D+00 EMaxC= 1.00D-01 BMatC= 2.52D-01 BMatP= 2.52D-01
 IDIUse=3 WtCom= 6.13D-01 WtEn= 3.87D-01
 Coeff-Com:  0.100D+01
 Coeff-En:   0.100D+01
 Coeff:      0.100D+01
 Gap=     0.100 Goal=   None    Shift=    0.000
 GapD=    0.100 DampG=0.500 DampE=0.500 DampFc=0.2500 IDamp=-1.
 Damping current iteration by 2.50D-01
 RMSDP=2.29D-02 MaxDP=3.10D-01              OVMax= 4.07D-01

 Cycle   2  Pass 0  IDiag  1:
 E= -323.397076460020     Delta-E=       -0.077505511299 Rises=F Damp=T
 DIIS: error= 1.70D-02 at cycle   2 NSaved=   2.
 NSaved= 2 IEnMin= 2 EnMin= -323.397076460020     IErMin= 2 ErrMin= 1.70D-02
 ErrMax= 1.70D-02  0.00D+00 EMaxC= 1.00D-01 BMatC= 4.01D-02 BMatP= 2.52D-01
 IDIUse=3 WtCom= 8.30D-01 WtEn= 1.70D-01
 Coeff-Com: -0.376D+00 0.138D+01
 Coeff-En:   0.000D+00 0.100D+01
 Coeff:     -0.312D+00 0.131D+01
 Gap=     0.227 Goal=   None    Shift=    0.000
 RMSDP=5.85D-03 MaxDP=6.00D-02 DE=-7.75D-02 OVMax= 3.47D-01

 Cycle   3  Pass 0  IDiag  1:
 E= -323.484910373158     Delta-E=       -0.087833913138 Rises=F Damp=F
 DIIS: error= 3.38D-02 at cycle   3 NSaved=   3.
 NSaved= 3 IEnMin= 3 EnMin= -323.484910373158     IErMin= 2 ErrMin= 1.70D-02
 ErrMax= 3.38D-02  0.00D+00 EMaxC= 1.00D-01 BMatC= 7.75D-02 BMatP= 4.01D-02
 IDIUse=2 WtCom= 0.00D+00 WtEn= 1.00D+00
 Coeff-En:   0.000D+00 0.350D-01 0.965D+00
 Coeff:      0.000D+00 0.350D-01 0.965D+00
 Gap=     0.229 Goal=   None    Shift=    0.000
 RMSDP=1.47D-02 MaxDP=1.99D-01 DE=-8.78D-02 OVMax= 3.77D-01

 Cycle   4  Pass 0  IDiag  1:
 E= -323.102312119958     Delta-E=        0.382598253200 Rises=F Damp=F
 DIIS: error= 9.21D-02 at cycle   4 NSaved=   4.
 NSaved= 4 IEnMin= 3 EnMin= -323.484910373158     IErMin= 2 ErrMin= 1.70D-02
 ErrMax= 9.21D-02  0.00D+00 EMaxC= 1.00D-01 BMatC= 5.40D-01 BMatP= 4.01D-02
 IDIUse=2 WtCom= 0.00D+00 WtEn= 1.00D+00
 Coeff-En:   0.000D+00 0.000D+00 0.811D+00 0.189D+00
 Coeff:      0.000D+00 0.000D+00 0.811D+00 0.189D+00
 Gap=     0.194 Goal=   None    Shift=    0.000
 RMSDP=8.80D-03 MaxDP=1.24D-01 DE= 3.83D-01 OVMax= 2.13D-01

 Cycle   5  Pass 0  IDiag  1:
 E= -323.518082801459     Delta-E=       -0.415770681501 Rises=F Damp=F
 DIIS: error= 2.50D-02 at cycle   5 NSaved=   5.
 NSaved= 5 IEnMin= 5 EnMin= -323.518082801459     IErMin= 2 ErrMin= 1.70D-02
 ErrMax= 2.50D-02  0.00D+00 EMaxC= 1.00D-01 BMatC= 4.14D-02 BMatP= 4.01D-02
 IDIUse=3 WtCom= 7.50D-01 WtEn= 2.50D-01
 Coeff-Com: -0.120D+00 0.244D+00 0.346D+00-0.689D-01 0.599D+00
 Coeff-En:   0.000D+00 0.000D+00 0.376D+00 0.000D+00 0.624D+00
 Coeff:     -0.902D-01 0.183D+00 0.354D+00-0.516D-01 0.605D+00
 Gap=     0.230 Goal=   None    Shift=    0.000
 RMSDP=2.83D-03 MaxDP=3.37D-02 DE=-4.16D-01 OVMax= 7.58D-02

 Cycle   6  Pass 0  IDiag  1:
 E= -323.551936973236     Delta-E=       -0.033854171776 Rises=F Damp=F
 DIIS: error= 2.09D-03 at cycle   6 NSaved=   6.
 NSaved= 6 IEnMin= 6 EnMin= -323.551936973236     IErMin= 6 ErrMin= 2.09D-03
 ErrMax= 2.09D-03  0.00D+00 EMaxC= 1.00D-01 BMatC= 2.81D-04 BMatP= 4.01D-02
 IDIUse=3 WtCom= 9.79D-01 WtEn= 2.09D-02
 Coeff-Com: -0.436D-01 0.650D-01 0.149D+00-0.389D-01 0.340D+00 0.528D+00
 Coeff-En:   0.000D+00 0.000D+00 0.000D+00 0.000D+00 0.000D+00 0.100D+01
 Coeff:     -0.427D-01 0.636D-01 0.146D+00-0.381D-01 0.333D+00 0.538D+00
 Gap=     0.207 Goal=   None    Shift=    0.000
 RMSDP=2.43D-04 MaxDP=4.34D-03 DE=-3.39D-02 OVMax= 6.12D-03

 Cycle   7  Pass 0  IDiag  1:
 E= -323.552150789269     Delta-E=       -0.000213816033 Rises=F Damp=F
 DIIS: error= 5.27D-04 at cycle   7 NSaved=   7.
 NSaved= 7 IEnMin= 7 EnMin= -323.552150789269     IErMin= 7 ErrMin= 5.27D-04
 ErrMax= 5.27D-04  0.00D+00 EMaxC= 1.00D-01 BMatC= 1.57D-05 BMatP= 2.81D-04
 IDIUse=3 WtCom= 9.95D-01 WtEn= 5.27D-03
 Coeff-Com: -0.609D-02 0.654D-02 0.229D-01-0.897D-02 0.665D-01 0.254D+00
 Coeff-Com:  0.665D+00
 Coeff-En:   0.000D+00 0.000D+00 0.000D+00 0.000D+00 0.000D+00 0.146D-01
 Coeff-En:   0.985D+00
 Coeff:     -0.606D-02 0.651D-02 0.227D-01-0.892D-02 0.662D-01 0.253D+00
 Coeff:      0.666D+00
 Gap=     0.208 Goal=   None    Shift=    0.000
 RMSDP=5.19D-05 MaxDP=7.68D-04 DE=-2.14D-04 OVMax= 7.56D-04

 Cycle   8  Pass 0  IDiag  1:
 E= -323.552162766027     Delta-E=       -0.000011976758 Rises=F Damp=F
 DIIS: error= 1.01D-04 at cycle   8 NSaved=   8.
 NSaved= 8 IEnMin= 8 EnMin= -323.552162766027     IErMin= 8 ErrMin= 1.01D-04
 ErrMax= 1.01D-04  0.00D+00 EMaxC= 1.00D-01 BMatC= 7.55D-07 BMatP= 1.57D-05
 IDIUse=3 WtCom= 9.99D-01 WtEn= 1.01D-03
 Coeff-Com:  0.109D-02-0.216D-02-0.114D-02-0.581D-03 0.126D-02 0.807D-01
 Coeff-Com:  0.304D+00 0.617D+00
 Coeff-En:   0.000D+00 0.000D+00 0.000D+00 0.000D+00 0.000D+00 0.000D+00
 Coeff-En:   0.000D+00 0.100D+01
 Coeff:      0.109D-02-0.216D-02-0.114D-02-0.581D-03 0.126D-02 0.806D-01
 Coeff:      0.304D+00 0.617D+00
 Gap=     0.208 Goal=   None    Shift=    0.000
 RMSDP=1.75D-05 MaxDP=1.84D-04 DE=-1.20D-05 OVMax= 2.24D-04

 Cycle   9  Pass 0  IDiag  1:
 E= -323.552163482162     Delta-E=       -0.000000716135 Rises=F Damp=F
 DIIS: error= 7.99D-06 at cycle   9 NSaved=   9.
 NSaved= 9 IEnMin= 9 EnMin= -323.552163482162     IErMin= 9 ErrMin= 7.99D-06
 ErrMax= 7.99D-06  0.00D+00 EMaxC= 1.00D-01 BMatC= 8.19D-09 BMatP= 7.55D-07
 IDIUse=1 WtCom= 1.00D+00 WtEn= 0.00D+00
 Coeff-Com:  0.451D-03-0.878D-03-0.414D-03-0.102D-03 0.146D-04 0.221D-01
 Coeff-Com:  0.789D-01 0.167D+00 0.733D+00
 Coeff:      0.451D-03-0.878D-03-0.414D-03-0.102D-03 0.146D-04 0.221D-01
 Coeff:      0.789D-01 0.167D+00 0.733D+00
 Gap=     0.208 Goal=   None    Shift=    0.000
 RMSDP=1.94D-06 MaxDP=2.23D-05 DE=-7.16D-07 OVMax= 2.28D-05

 Initial convergence to 1.0D-05 achieved.  Increase integral accuracy.
 Cycle  10  Pass 1  IDiag  1:
 E= -323.552160512712     Delta-E=        0.000002969451 Rises=F Damp=F
 DIIS: error= 6.74D-06 at cycle   1 NSaved=   1.
 NSaved= 1 IEnMin= 1 EnMin= -323.552160512712     IErMin= 1 ErrMin= 6.74D-06
 ErrMax= 6.74D-06  0.00D+00 EMaxC= 1.00D-01 BMatC= 9.24D-09 BMatP= 9.24D-09
 IDIUse=1 WtCom= 1.00D+00 WtEn= 0.00D+00
 Coeff-Com:  0.100D+01
 Coeff:      0.100D+01
 Gap=     0.208 Goal=   None    Shift=    0.000
 RMSDP=1.94D-06 MaxDP=2.23D-05 DE= 2.97D-06 OVMax= 4.88D-05

 Cycle  11  Pass 1  IDiag  1:
 E= -323.552160524197     Delta-E=       -0.000000011485 Rises=F Damp=F
 DIIS: error= 7.59D-06 at cycle   2 NSaved=   2.
 NSaved= 2 IEnMin= 2 EnMin= -323.552160524197     IErMin= 1 ErrMin= 6.74D-06
 ErrMax= 7.59D-06  0.00D+00 EMaxC= 1.00D-01 BMatC= 5.67D-09 BMatP= 9.24D-09
 IDIUse=1 WtCom= 1.00D+00 WtEn= 0.00D+00
 Coeff-Com:  0.409D+00 0.591D+00
 Coeff:      0.409D+00 0.591D+00
 Gap=     0.208 Goal=   None    Shift=    0.000
 RMSDP=1.84D-06 MaxDP=2.24D-05 DE=-1.15D-08 OVMax= 4.66D-05

 Cycle  12  Pass 1  IDiag  1:
 E= -323.552160525789     Delta-E=       -0.000000001592 Rises=F Damp=F
 DIIS: error= 8.22D-06 at cycle   3 NSaved=   3.
 NSaved= 3 IEnMin= 3 EnMin= -323.552160525789     IErMin= 1 ErrMin= 6.74D-06
 ErrMax= 8.22D-06  0.00D+00 EMaxC= 1.00D-01 BMatC= 4.13D-09 BMatP= 5.67D-09
 IDIUse=1 WtCom= 1.00D+00 WtEn= 0.00D+00
 Coeff-Com:  0.416D-01 0.448D+00 0.510D+00
 Coeff:      0.416D-01 0.448D+00 0.510D+00
 Gap=     0.208 Goal=   None    Shift=    0.000
 RMSDP=1.19D-06 MaxDP=1.74D-05 DE=-1.59D-09 OVMax= 3.29D-05

 Cycle  13  Pass 1  IDiag  1:
 E= -323.552160528461     Delta-E=       -0.000000002672 Rises=F Damp=F
 DIIS: error= 2.85D-06 at cycle   4 NSaved=   4.
 NSaved= 4 IEnMin= 4 EnMin= -323.552160528461     IErMin= 4 ErrMin= 2.85D-06
 ErrMax= 2.85D-06  0.00D+00 EMaxC= 1.00D-01 BMatC= 7.87D-10 BMatP= 4.13D-09
 IDIUse=1 WtCom= 1.00D+00 WtEn= 0.00D+00
 Coeff-Com: -0.206D-01 0.252D+00 0.369D+00 0.400D+00
 Coeff:     -0.206D-01 0.252D+00 0.369D+00 0.400D+00
 Gap=     0.208 Goal=   None    Shift=    0.000
 RMSDP=4.28D-07 MaxDP=6.26D-06 DE=-2.67D-09 OVMax= 9.88D-06

 Cycle  14  Pass 1  IDiag  1:
 E= -323.552160529125     Delta-E=       -0.000000000664 Rises=F Damp=F
 DIIS: error= 1.72D-07 at cycle   5 NSaved=   5.
 NSaved= 5 IEnMin= 5 EnMin= -323.552160529125     IErMin= 5 ErrMin= 1.72D-07
 ErrMax= 1.72D-07  0.00D+00 EMaxC= 1.00D-01 BMatC= 6.10D-12 BMatP= 7.87D-10
 IDIUse=1 WtCom= 1.00D+00 WtEn= 0.00D+00
 Coeff-Com: -0.101D-01 0.103D+00 0.149D+00 0.186D+00 0.572D+00
 Coeff:     -0.101D-01 0.103D+00 0.149D+00 0.186D+00 0.572D+00
 Gap=     0.208 Goal=   None    Shift=    0.000
 RMSDP=4.46D-08 MaxDP=4.57D-07 DE=-6.64D-10 OVMax= 5.05D-07

 Cycle  15  Pass 1  IDiag  1:
 E= -323.552160529127     Delta-E=       -0.000000000001 Rises=F Damp=F
 DIIS: error= 8.27D-08 at cycle   6 NSaved=   6.
 NSaved= 6 IEnMin= 6 EnMin= -323.552160529127     IErMin= 6 ErrMin= 8.27D-08
 ErrMax= 8.27D-08  0.00D+00 EMaxC= 1.00D-01 BMatC= 5.62D-13 BMatP= 6.10D-12
 IDIUse=1 WtCom= 1.00D+00 WtEn= 0.00D+00
 Coeff-Com: -0.157D-02 0.966D-02 0.108D-01 0.271D-01 0.253D+00 0.701D+00
 Coeff:     -0.157D-02 0.966D-02 0.108D-01 0.271D-01 0.253D+00 0.701D+00
 Gap=     0.208 Goal=   None    Shift=    0.000
 RMSDP=1.39D-08 MaxDP=1.71D-07 DE=-1.25D-12 OVMax= 1.55D-07

 Cycle  16  Pass 1  IDiag  1:
 E= -323.552160529129     Delta-E=       -0.000000000003 Rises=F Damp=F
 DIIS: error= 2.66D-08 at cycle   7 NSaved=   7.
 NSaved= 7 IEnMin= 7 EnMin= -323.552160529129     IErMin= 7 ErrMin= 2.66D-08
 ErrMax= 2.66D-08  0.00D+00 EMaxC= 1.00D-01 BMatC= 5.13D-14 BMatP= 5.62D-13
 IDIUse=1 WtCom= 1.00D+00 WtEn= 0.00D+00
 Coeff-Com: -0.341D-03 0.308D-03-0.104D-02 0.474D-02 0.100D+00 0.350D+00
 Coeff-Com:  0.546D+00
 Coeff:     -0.341D-03 0.308D-03-0.104D-02 0.474D-02 0.100D+00 0.350D+00
 Coeff:      0.546D+00
 Gap=     0.208 Goal=   None    Shift=    0.000
 RMSDP=3.97D-09 MaxDP=5.35D-08 DE=-2.61D-12 OVMax= 5.78D-08

 SCF Done:  E(RB3LYP) =  -323.552160529     A.U. after   16 cycles
            NFock= 16  Conv=0.40D-08     -V/T= 2.0045
 KE= 3.220980284395D+02 PE=-1.252594256422D+03 EE= 3.595787419011D+02
 Leave Link  502 at Wed Apr 13 00:15:27 2016, MaxMem=    33554432 cpu:        15.3
 (Enter /usr/local/gau/g09/l801.exe)
 DoSCS=F DFT=T ScalE2(SS,OS)=  1.000000  1.000000
 Range of M.O.s used for correlation:     1    68
 NBasis=    68 NAE=    24 NBE=    24 NFC=     0 NFV=     0
 NROrb=     68 NOA=    24 NOB=    24 NVA=    44 NVB=    44
 Leave Link  801 at Wed Apr 13 00:15:28 2016, MaxMem=    33554432 cpu:         0.0
 (Enter /usr/local/gau/g09/l1101.exe)
 Using compressed storage, NAtomX=    13.
 Will process     14 centers per pass.
 Leave Link 1101 at Wed Apr 13 00:15:29 2016, MaxMem=    33554432 cpu:         0.1
 (Enter /usr/local/gau/g09/l1102.exe)
 Symmetrizing basis deriv contribution to polar:
 IMax=3 JMax=2 DiffMx= 0.00D+00
 Leave Link 1102 at Wed Apr 13 00:15:29 2016, MaxMem=    33554432 cpu:         0.0
 (Enter /usr/local/gau/g09/l1110.exe)
 Forming Gx(P) for the SCF density, NAtomX=    13.
 Integral derivatives from FoFJK, PRISM(SPDF).
 Do as many integral derivatives as possible in FoFJK.
 G2DrvN: MDV=      33554224.
 G2DrvN: will do    14 centers at a time, making    1 passes.
 Calling FoFCou, ICntrl=  3107 FMM=F I1Cent=   0 AccDes= 0.00D+00.
 FoFJK:  IHMeth= 1 ICntrl=    3107 DoSepK=F KAlg= 0 I1Cent=   0 FoldK=F
 IRaf=         0 NMat=   1 IRICut=       1 DoRegI=T DoRafI=F ISym2E= 0.
 FoFCou: FMM=F IPFlag=           0 FMFlag=      100000 FMFlg1=           0
         NFxFlg=           0 DoJE=F BraDBF=F KetDBF=F FulRan=T
         wScrn=  0.000000 ICntrl=    3107 IOpCl=  0 I1Cent=           0 NGrid=           0
         NMat0=    1 NMatS0=      1 NMatT0=    0 NMatD0=    1 NMtDS0=    0 NMtDT0=    0
 Symmetry not used in FoFCou.
 End of G2Drv F.D. properties file   721 does not exist.
 End of G2Drv F.D. properties file   722 does not exist.
 End of G2Drv F.D. properties file   788 does not exist.
 Leave Link 1110 at Wed Apr 13 00:16:30 2016, MaxMem=    33554432 cpu:        28.8
 (Enter /usr/local/gau/g09/l1002.exe)
 Minotr:  Closed shell wavefunction.
          IDoAtm=1111111111111
          Direct CPHF calculation.
          Differentiating once with respect to electric field.
                with respect to dipole field.
          Differentiating once with respect to nuclear coordinates.
          Requested convergence is 1.0D-08 RMS, and 1.0D-07 maximum.
          Secondary convergence is 1.0D-12 RMS, and 1.0D-12 maximum.
          NewPWx=T KeepS1=F KeepF1=F KeepIn=T MapXYZ=F SortEE=F KeepMc=T.
          MDV=      33554230 using IRadAn=       2.
 Generate precomputed XC quadrature information.
 Keep R1 ints in memory in canonical form, NReq=3645290.
 FoFCou: FMM=F IPFlag=           0 FMFlag=           0 FMFlg1=           0
         NFxFlg=           0 DoJE=F BraDBF=F KetDBF=F FulRan=T
         wScrn=  0.000000 ICntrl=     600 IOpCl=  0 I1Cent=           0 NGrid=           0
         NMat0=    1 NMatS0=   2346 NMatT0=    0 NMatD0=    1 NMtDS0=    0 NMtDT0=    0
 Symmetry not used in FoFCou.
          Solving linear equations simultaneously, MaxMat=       0.
          There are    42 degrees of freedom in the 1st order CPHF.  IDoFFX=6 NUNeed=     3.
     39 vectors produced by pass  0 Test12= 2.51D-15 2.38D-09 XBig12= 3.94D+01 3.39D+00.
 AX will form    39 AO Fock derivatives at one time.
     39 vectors produced by pass  1 Test12= 2.51D-15 2.38D-09 XBig12= 4.46D+00 5.44D-01.
     39 vectors produced by pass  2 Test12= 2.51D-15 2.38D-09 XBig12= 2.10D-02 3.78D-02.
     39 vectors produced by pass  3 Test12= 2.51D-15 2.38D-09 XBig12= 5.52D-05 1.52D-03.
     39 vectors produced by pass  4 Test12= 2.51D-15 2.38D-09 XBig12= 4.35D-08 2.88D-05.
     13 vectors produced by pass  5 Test12= 2.51D-15 2.38D-09 XBig12= 1.79D-11 5.36D-07.
      2 vectors produced by pass  6 Test12= 2.51D-15 2.38D-09 XBig12= 8.68D-15 1.28D-08.
 InvSVY:  IOpt=1 It=  1 EMax= 3.55D-15
 Solved reduced A of dimension   210 with    42 vectors.
 FullF1:  Do perturbations    1 to     3.
 Isotropic polarizability for W=    0.000000       42.28 Bohr**3.
 End of Minotr F.D. properties file   721 does not exist.
 End of Minotr F.D. properties file   722 does not exist.
 End of Minotr F.D. properties file   788 does not exist.
 Leave Link 1002 at Wed Apr 13 00:17:18 2016, MaxMem=    33554432 cpu:        23.6
 (Enter /usr/local/gau/g09/l601.exe)
 Copying SCF densities to generalized density rwf, IOpCl= 0 IROHF=0.

 **********************************************************************

            Population analysis using the SCF density.

 **********************************************************************

 Orbital symmetries:
       Occupied  (A) (A) (A) (A) (A) (A) (A) (A) (A) (A) (A) (A)
                 (A) (A) (A) (A) (A) (A) (A) (A) (A) (A) (A) (A)
       Virtual   (A) (A) (A) (A) (A) (A) (A) (A) (A) (A) (A) (A)
                 (A) (A) (A) (A) (A) (A) (A) (A) (A) (A) (A) (A)
                 (A) (A) (A) (A) (A) (A) (A) (A) (A) (A) (A) (A)
                 (A) (A) (A) (A) (A) (A) (A) (A)
 The electronic state is 1-A.
 Alpha  occ. eigenvalues --  -19.20877 -19.12243 -14.31462 -10.32399 -10.21542
 Alpha  occ. eigenvalues --  -10.18401  -1.11661  -0.99227  -0.90800  -0.76385
 Alpha  occ. eigenvalues --   -0.69122  -0.63960  -0.52531  -0.50081  -0.46683
 Alpha  occ. eigenvalues --   -0.45783  -0.42439  -0.41387  -0.40007  -0.36318
 Alpha  occ. eigenvalues --   -0.34971  -0.28975  -0.25676  -0.23149
 Alpha virt. eigenvalues --   -0.02333   0.05540   0.08162   0.12465   0.14071
 Alpha virt. eigenvalues --    0.15525   0.16399   0.20148   0.22256   0.22684
 Alpha virt. eigenvalues --    0.29186   0.31217   0.36523   0.53274   0.54089
 Alpha virt. eigenvalues --    0.56598   0.58915   0.61207   0.64394   0.69182
 Alpha virt. eigenvalues --    0.72175   0.75116   0.77383   0.80512   0.81619
 Alpha virt. eigenvalues --    0.88510   0.90529   0.91994   0.92839   0.94026
 Alpha virt. eigenvalues --    0.94566   0.96149   0.98651   0.98849   1.04710
 Alpha virt. eigenvalues --    1.08981   1.13527   1.22629   1.27183   1.32839
 Alpha virt. eigenvalues --    1.48111   1.54346   1.85399   1.91855
          Condensed to atoms (all electrons):
               1          2          3          4          5          6
     1  N    6.937974   0.341786   0.326151  -0.069740  -0.079353  -0.077737
     2  H    0.341786   0.439140  -0.033972  -0.018277   0.001592   0.005798
     3  C    0.326151  -0.033972   5.453551   0.335777   0.253262   0.081507
     4  H   -0.069740  -0.018277   0.335777   0.574032  -0.015481  -0.058504
     5  C   -0.079353   0.001592   0.253262  -0.015481   5.194042  -0.050322
     6  C   -0.077737   0.005798   0.081507  -0.058504  -0.050322   4.972456
     7  H    0.002292   0.001307  -0.028988  -0.006226   0.363364   0.005453
     8  H    0.005366  -0.000108  -0.029303  -0.001152   0.348565   0.002916
     9  H   -0.004811  -0.000229  -0.025225   0.003519   0.370438  -0.007101
    10  O    0.003675  -0.000089  -0.179180   0.027179   0.004281   0.503716
    11  H    0.318652  -0.037148  -0.043225   0.011378  -0.001148  -0.005380
    12  O   -0.000311  -0.000078  -0.109442   0.009279   0.007899   0.144831
    13  H   -0.000183   0.000007   0.009292  -0.000627  -0.000873  -0.012701
               7          8          9         10         11         12
     1  N    0.002292   0.005366  -0.004811   0.003675   0.318652  -0.000311
     2  H    0.001307  -0.000108  -0.000229  -0.000089  -0.037148  -0.000078
     3  C   -0.028988  -0.029303  -0.025225  -0.179180  -0.043225  -0.109442
     4  H   -0.006226  -0.001152   0.003519   0.027179   0.011378   0.009279
     5  C    0.363364   0.348565   0.370438   0.004281  -0.001148   0.007899
     6  C    0.005453   0.002916  -0.007101   0.503716  -0.005380   0.144831
     7  H    0.583627  -0.028088  -0.032070  -0.000115  -0.000602   0.000021
     8  H   -0.028088   0.582790  -0.029028   0.000064  -0.000005   0.000943
     9  H   -0.032070  -0.029028   0.573561  -0.000069   0.004825   0.000796
    10  O   -0.000115   0.000064  -0.000069   8.205246   0.000015  -0.104137
    11  H   -0.000602  -0.000005   0.004825   0.000015   0.472157   0.000412
    12  O    0.000021   0.000943   0.000796  -0.104137   0.000412   8.358875
    13  H    0.000010   0.000024  -0.000003   0.005322  -0.000012   0.231468
              13
     1  N   -0.000183
     2  H    0.000007
     3  C    0.009292
     4  H   -0.000627
     5  C   -0.000873
     6  C   -0.012701
     7  H    0.000010
     8  H    0.000024
     9  H   -0.000003
    10  O    0.005322
    11  H   -0.000012
    12  O    0.231468
    13  H    0.368271
 Mulliken charges:
               1
     1  N   -0.703760
     2  H    0.300271
     3  C   -0.010204
     4  H    0.208843
     5  C   -0.396265
     6  C    0.495068
     7  H    0.140014
     8  H    0.147016
     9  H    0.145396
    10  O   -0.465908
    11  H    0.280081
    12  O   -0.540556
    13  H    0.400004
 Sum of Mulliken charges =   0.00000
 Mulliken charges with hydrogens summed into heavy atoms:
               1
     1  N   -0.123408
     3  C    0.198640
     5  C    0.036160
     6  C    0.495068
    10  O   -0.465908
    12  O   -0.140552
 APT charges:
               1
     1  N   -0.485704
     2  H    0.174735
     3  C    0.215065
     4  H    0.090461
     5  C    0.032111
     6  C    0.895798
     7  H   -0.015301
     8  H   -0.007505
     9  H   -0.006322
    10  O   -0.670136
    11  H    0.136671
    12  O   -0.670943
    13  H    0.311071
 Sum of APT charges =   0.00000
 APT charges with hydrogens summed into heavy atoms:
               1
     1  N   -0.174299
     3  C    0.305526
     5  C    0.002983
     6  C    0.895798
    10  O   -0.670136
    12  O   -0.359872
 Electronic spatial extent (au):  <R**2>=            595.5544
 Charge=              0.0000 electrons
 Dipole moment (field-independent basis, Debye):
    X=              1.7790    Y=              2.0184    Z=              0.3832  Tot=              2.7177
 Quadrupole moment (field-independent basis, Debye-Ang):
   XX=            -28.6650   YY=            -40.2321   ZZ=            -35.6741
   XY=             -6.3825   XZ=             -1.0593   YZ=             -1.3306
 Traceless Quadrupole moment (field-independent basis, Debye-Ang):
   XX=              6.1921   YY=             -5.3750   ZZ=             -0.8170
   XY=             -6.3825   XZ=             -1.0593   YZ=             -1.3306
 Octapole moment (field-independent basis, Debye-Ang**2):
  XXX=            -17.6502  YYY=              0.5654  ZZZ=              4.3911  XYY=              6.3936
  XXY=              4.7287  XXZ=              6.2173  XZZ=              1.9772  YZZ=             -1.1101
  YYZ=             -1.7082  XYZ=              3.3167
 Hexadecapole moment (field-independent basis, Debye-Ang**3):
 XXXX=           -324.1251 YYYY=           -254.3211 ZZZZ=            -80.2007 XXXY=            -49.7384
 XXXZ=            -10.0307 YYYX=            -18.1395 YYYZ=              3.7409 ZZZX=              6.4336
 ZZZY=              0.3495 XXYY=            -97.5600 XXZZ=            -75.1453 YYZZ=            -56.3373
 XXYZ=             -1.6455 YYXZ=             -1.8137 ZZXY=             -4.6362
 N-N= 2.473653255519D+02 E-N=-1.252594256155D+03  KE= 3.220980284395D+02
  Exact polarizability:  47.637  -2.613  45.505   1.457   3.416  33.697
 Approx polarizability:  58.163  -0.934  70.945   4.093  12.692  47.966
 No NMR shielding tensors so no spin-rotation constants.
 Leave Link  601 at Wed Apr 13 00:17:18 2016, MaxMem=    33554432 cpu:         0.1
 (Enter /usr/local/gau/g09/l701.exe)
 Compute integral second derivatives.
 ... and contract with generalized density number  0.
 Leave Link  701 at Wed Apr 13 00:17:18 2016, MaxMem=    33554432 cpu:         0.1
 (Enter /usr/local/gau/g09/l702.exe)
 L702 exits ... SP integral derivatives will be done elsewhere.
 Leave Link  702 at Wed Apr 13 00:17:18 2016, MaxMem=    33554432 cpu:         0.0
 (Enter /usr/local/gau/g09/l703.exe)
 Compute integral second derivatives, UseDBF=F ICtDFT=           0.
 Integral derivatives from FoFJK, PRISM(SPDF).
 Calling FoFJK, ICntrl=    100127 FMM=F ISym2X=0 I1Cent= 0 IOpClX= 0 NMat=1 NMatS=1 NMatT=0.
 FoFJK:  IHMeth= 1 ICntrl=  100127 DoSepK=F KAlg= 0 I1Cent=   0 FoldK=F
 IRaf=         0 NMat=   1 IRICut=       1 DoRegI=T DoRafI=F ISym2E= 0.
 FoFCou: FMM=F IPFlag=           0 FMFlag=      100000 FMFlg1=         800
         NFxFlg=           0 DoJE=F BraDBF=F KetDBF=F FulRan=T
         wScrn=  0.000000 ICntrl=  100127 IOpCl=  0 I1Cent=           0 NGrid=           0
         NMat0=    1 NMatS0=      1 NMatT0=    0 NMatD0=    1 NMtDS0=    0 NMtDT0=    0
 Symmetry not used in FoFCou.
 Leave Link  703 at Wed Apr 13 00:18:19 2016, MaxMem=    33554432 cpu:        29.8
 (Enter /usr/local/gau/g09/l716.exe)
 Dipole        = 6.99926255D-01 7.94112760D-01 1.50771963D-01
 Polarizability= 4.76370874D+01-2.61282317D+00 4.55053280D+01
                 1.45671209D+00 3.41604747D+00 3.36973900D+01
 Full mass-weighted force constant matrix:
 Low frequencies --- -493.6098 -259.9061  -85.4644   -0.0008   -0.0007    0.0008
 Low frequencies ---  100.0189  206.8293  221.7069
 ******    1 imaginary frequencies (negative Signs) ****** 
 Diagonal vibrational polarizability:
       19.0209877      78.6171110      21.4521748
 Harmonic frequencies (cm**-1), IR intensities (KM/Mole), Raman scattering
 activities (A**4/AMU), depolarization ratios for plane and unpolarized
 incident light, reduced masses (AMU), force constants (mDyne/A),
 and normal coordinates:
                      1                      2                      3
                      A                      A                      A
 Frequencies --   -387.0621               102.2459               210.1751
 Red. masses --      1.6822                 2.4961                 1.3834
 Frc consts  --      0.1485                 0.0154                 0.0360
 IR Inten    --      5.0798                 7.2076                59.4448
  Atom  AN      X      Y      Z        X      Y      Z        X      Y      Z
     1   7    -0.07  -0.05  -0.09     0.18  -0.02  -0.10     0.00  -0.06  -0.01
     2   1    -0.11  -0.07  -0.10    -0.18  -0.27  -0.27     0.57   0.53   0.00
     3   6     0.01   0.03   0.09     0.01  -0.04   0.05    -0.02  -0.01  -0.02
     4   1     0.27   0.69  -0.56    -0.38  -0.16   0.23     0.03  -0.12   0.07
     5   6     0.00   0.04   0.05    -0.01  -0.03   0.08    -0.07   0.02   0.05
     6   6     0.00  -0.04   0.01    -0.02   0.03   0.11     0.01  -0.03  -0.01
     7   1    -0.02  -0.05   0.03    -0.06   0.06  -0.01    -0.18   0.18  -0.17
     8   1    -0.01  -0.03  -0.05    -0.06   0.05   0.27    -0.20   0.10   0.32
     9   1     0.04   0.18  -0.02     0.08  -0.18   0.13     0.11  -0.16   0.07
    10   8     0.03  -0.06   0.10    -0.01   0.01   0.06    -0.03  -0.02   0.03
    11   1    -0.08  -0.12  -0.07     0.46  -0.08  -0.19    -0.19  -0.02   0.06
    12   8     0.01   0.04  -0.08    -0.12   0.08  -0.14     0.08   0.05  -0.06
    13   1     0.01   0.02  -0.03    -0.09   0.04  -0.31     0.07   0.12  -0.04
                      4                      5                      6
                      A                      A                      A
 Frequencies --    226.1620               257.5295               319.4647
 Red. masses --      1.1237                 2.2443                 2.8170
 Frc consts  --      0.0339                 0.0877                 0.1694
 IR Inten    --     11.1476                27.5781                 4.5979
  Atom  AN      X      Y      Z        X      Y      Z        X      Y      Z
     1   7    -0.04   0.03   0.04    -0.05  -0.05  -0.05     0.06  -0.14   0.05
     2   1    -0.23  -0.20   0.07     0.45   0.53  -0.09     0.25   0.17  -0.08
     3   6     0.01   0.02   0.02    -0.01   0.09  -0.01     0.04  -0.03   0.23
     4   1     0.06   0.07  -0.04    -0.13  -0.01   0.10     0.03   0.20   0.02
     5   6     0.04   0.00  -0.03     0.19  -0.03  -0.04    -0.09   0.01  -0.14
     6   6     0.00   0.01  -0.01    -0.01   0.05   0.04     0.01   0.02   0.07
     7   1    -0.24   0.08  -0.50     0.17  -0.22  -0.03    -0.19  -0.04  -0.30
     8   1    -0.16   0.15   0.42     0.34   0.06  -0.08    -0.29  -0.24  -0.28
     9   1     0.53  -0.23  -0.07     0.26  -0.05  -0.05     0.05   0.36  -0.33
    10   8     0.03  -0.01  -0.02     0.05   0.00   0.05     0.03   0.11  -0.13
    11   1    -0.01   0.01   0.02    -0.19  -0.05   0.01     0.08  -0.25   0.07
    12   8    -0.02  -0.02   0.01    -0.18  -0.04   0.01    -0.05   0.00   0.04
    13   1    -0.02  -0.05   0.02    -0.15  -0.21  -0.06    -0.02   0.06  -0.21
                      7                      8                      9
                      A                      A                      A
 Frequencies --    418.5337               562.4625               579.3051
 Red. masses --      2.3296                 1.5461                 2.2965
 Frc consts  --      0.2404                 0.2882                 0.4541
 IR Inten    --     14.0644               120.3447                44.0648
  Atom  AN      X      Y      Z        X      Y      Z        X      Y      Z
     1   7     0.13   0.13   0.02     0.10   0.06  -0.04     0.05  -0.03   0.04
     2   1     0.23   0.30  -0.05    -0.04  -0.21   0.13     0.16  -0.01   0.16
     3   6    -0.08  -0.01   0.09     0.03   0.02   0.03     0.11  -0.10  -0.06
     4   1     0.23   0.32  -0.26     0.02  -0.06   0.10     0.27   0.16  -0.33
     5   6     0.07  -0.10   0.03     0.05   0.06  -0.01    -0.01  -0.02   0.02
     6   6    -0.09  -0.08  -0.04     0.00  -0.05   0.01     0.08   0.05  -0.06
     7   1    -0.01  -0.37  -0.03     0.04  -0.01  -0.01     0.01   0.19   0.01
     8   1     0.22   0.00   0.01     0.07   0.06  -0.05    -0.15  -0.09   0.07
     9   1     0.25  -0.09  -0.03     0.08   0.07  -0.03    -0.10  -0.02   0.04
    10   8    -0.14  -0.01  -0.07    -0.12   0.00   0.01    -0.11   0.15   0.08
    11   1     0.33   0.36  -0.10    -0.65  -0.56   0.32     0.04   0.18   0.00
    12   8     0.03  -0.01   0.01     0.01  -0.04  -0.02    -0.08  -0.06  -0.05
    13   1     0.00   0.14   0.04     0.02   0.01  -0.12    -0.07  -0.66   0.28
                     10                     11                     12
                      A                      A                      A
 Frequencies --    626.2276               655.5239               717.1396
 Red. masses --      2.4403                 1.4232                 3.6605
 Frc consts  --      0.5639                 0.3603                 1.1092
 IR Inten    --     37.6458               210.7055                43.6597
  Atom  AN      X      Y      Z        X      Y      Z        X      Y      Z
     1   7     0.04   0.13  -0.06    -0.05  -0.01   0.02    -0.12   0.10  -0.03
     2   1     0.13   0.02   0.23     0.00   0.01   0.05    -0.03   0.11   0.06
     3   6    -0.01  -0.12  -0.06     0.05  -0.01  -0.05     0.00   0.01   0.00
     4   1    -0.03   0.21  -0.34    -0.04   0.06  -0.10    -0.53   0.10   0.01
     5   6    -0.10  -0.19   0.02     0.03   0.05  -0.01    -0.01  -0.01  -0.02
     6   6     0.02   0.04   0.05     0.04  -0.04   0.04     0.09  -0.15   0.34
     7   1    -0.09  -0.15   0.03     0.06   0.14   0.00    -0.01  -0.08  -0.01
     8   1    -0.09  -0.15   0.07     0.00   0.05   0.02     0.05   0.03  -0.03
     9   1    -0.11  -0.28   0.06    -0.02   0.03   0.02     0.02  -0.05  -0.01
    10   8     0.13   0.04  -0.01    -0.06   0.04   0.03    -0.02   0.08  -0.10
    11   1    -0.55   0.00   0.15     0.14   0.25  -0.10    -0.12   0.24  -0.06
    12   8    -0.05   0.04   0.06     0.00  -0.09   0.03     0.09  -0.04  -0.13
    13   1    -0.01   0.21  -0.35     0.09   0.32  -0.85     0.07  -0.51   0.34
                     13                     14                     15
                      A                      A                      A
 Frequencies --    815.8216               950.3859              1084.2410
 Red. masses --      3.3202                 2.0298                 1.9707
 Frc consts  --      1.3020                 1.0802                 1.3650
 IR Inten    --      9.2111                18.9768                55.2955
  Atom  AN      X      Y      Z        X      Y      Z        X      Y      Z
     1   7    -0.04   0.06  -0.04     0.07  -0.09   0.06    -0.02   0.03   0.00
     2   1    -0.19   0.14  -0.32     0.00  -0.20   0.08    -0.09   0.05  -0.13
     3   6    -0.12   0.13   0.11    -0.12   0.05  -0.12     0.04   0.16  -0.07
     4   1     0.10  -0.17   0.34     0.65  -0.10  -0.10     0.53  -0.15   0.14
     5   6    -0.12  -0.12   0.04    -0.07   0.06  -0.03     0.04  -0.14   0.05
     6   6     0.09   0.08  -0.12     0.00  -0.09   0.10     0.06  -0.08   0.05
     7   1    -0.19  -0.43   0.01    -0.07  -0.34   0.08    -0.03   0.19  -0.12
     8   1     0.05  -0.05  -0.04     0.34   0.36  -0.04    -0.39  -0.49   0.01
     9   1     0.05  -0.08  -0.03     0.09  -0.17   0.02    -0.11   0.17  -0.05
    10   8     0.04   0.12   0.11     0.05   0.07   0.00    -0.05  -0.04  -0.03
    11   1     0.10  -0.24  -0.02     0.05  -0.09   0.06     0.09  -0.13   0.00
    12   8     0.10  -0.17  -0.07    -0.03   0.03  -0.01    -0.04   0.08   0.03
    13   1     0.16  -0.26  -0.33    -0.01  -0.04  -0.09     0.01  -0.17  -0.15
                     16                     17                     18
                      A                      A                      A
 Frequencies --   1101.2044              1117.1193              1199.8665
 Red. masses --      1.3676                 1.8372                 2.3065
 Frc consts  --      0.9771                 1.3508                 1.9565
 IR Inten    --     19.8610                91.1960                73.0928
  Atom  AN      X      Y      Z        X      Y      Z        X      Y      Z
     1   7     0.00  -0.01  -0.03     0.01   0.00  -0.02     0.04  -0.09   0.02
     2   1     0.07  -0.12   0.17     0.03  -0.06   0.08     0.15  -0.26   0.33
     3   6     0.00  -0.04  -0.05    -0.05  -0.02  -0.05     0.16   0.23  -0.04
     4   1    -0.11  -0.15   0.06     0.08  -0.15   0.05    -0.30   0.25   0.02
     5   6    -0.03   0.05   0.13     0.08  -0.01   0.07    -0.11  -0.08   0.00
     6   6     0.04   0.03  -0.01    -0.10  -0.06   0.02     0.02   0.03   0.00
     7   1    -0.26  -0.42  -0.14    -0.03   0.14  -0.15    -0.12  -0.31   0.06
     8   1     0.04  -0.14  -0.24    -0.22  -0.31  -0.07     0.06   0.03  -0.01
     9   1     0.39   0.46  -0.17     0.09   0.38  -0.10     0.00  -0.21   0.02
    10   8    -0.01  -0.04  -0.01     0.07   0.11   0.05    -0.05  -0.02   0.00
    11   1    -0.09   0.25  -0.06    -0.06   0.08  -0.01    -0.07   0.25  -0.01
    12   8     0.00   0.04   0.02    -0.01  -0.10  -0.07    -0.02  -0.05  -0.02
    13   1     0.04  -0.22  -0.13    -0.12   0.61   0.37    -0.10   0.46   0.28
                     19                     20                     21
                      A                      A                      A
 Frequencies --   1250.3725              1329.2438              1452.0772
 Red. masses --      1.8963                 2.0954                 2.7497
 Frc consts  --      1.7467                 2.1813                 3.4159
 IR Inten    --     20.5844               125.8928               141.2382
  Atom  AN      X      Y      Z        X      Y      Z        X      Y      Z
     1   7    -0.08   0.08   0.02     0.05  -0.01   0.14    -0.03   0.02  -0.06
     2   1    -0.16   0.34  -0.38    -0.11   0.22  -0.33     0.02  -0.02   0.04
     3   6     0.18  -0.09  -0.03    -0.04   0.02  -0.16    -0.04  -0.07   0.05
     4   1     0.12  -0.14   0.03    -0.33   0.30  -0.36     0.72  -0.22   0.06
     5   6    -0.07   0.04   0.02     0.01  -0.01   0.05    -0.01   0.00  -0.01
     6   6     0.05  -0.08  -0.02    -0.04   0.15   0.08     0.13   0.26   0.15
     7   1    -0.11  -0.31   0.04    -0.09   0.00  -0.12     0.04   0.09   0.05
     8   1     0.16   0.10  -0.12    -0.03  -0.12  -0.08     0.07   0.09   0.02
     9   1     0.19  -0.07  -0.02     0.05   0.12  -0.03     0.03   0.01  -0.02
    10   8    -0.01   0.02   0.01    -0.02  -0.05  -0.03    -0.07  -0.10  -0.05
    11   1     0.22  -0.39   0.02     0.19  -0.52   0.20    -0.06   0.15  -0.08
    12   8    -0.06   0.02   0.00     0.04  -0.06  -0.02    -0.01  -0.08  -0.05
    13   1    -0.12   0.37   0.23     0.04  -0.01  -0.04    -0.08   0.42   0.22
                     22                     23                     24
                      A                      A                      A
 Frequencies --   1474.2823              1533.9796              1539.9417
 Red. masses --      1.2340                 1.0890                 1.0465
 Frc consts  --      1.5802                 1.5098                 1.4621
 IR Inten    --      3.7259                 0.8900                 8.8375
  Atom  AN      X      Y      Z        X      Y      Z        X      Y      Z
     1   7     0.00   0.00   0.00     0.00   0.00  -0.01     0.00   0.00   0.01
     2   1    -0.01   0.00  -0.01     0.01  -0.01   0.02    -0.01   0.02  -0.03
     3   6     0.02   0.01   0.00     0.01   0.01   0.00     0.00   0.00  -0.02
     4   1    -0.02   0.01   0.01     0.06  -0.01   0.01    -0.02  -0.01  -0.02
     5   6    -0.08  -0.12   0.02    -0.05   0.03   0.00    -0.01   0.00  -0.05
     6   6    -0.01  -0.01   0.00    -0.05   0.01   0.01     0.00   0.00   0.00
     7   1     0.10   0.56   0.08     0.22   0.23   0.34     0.28  -0.30   0.51
     8   1     0.47   0.33   0.03    -0.14  -0.32  -0.37    -0.38   0.07   0.50
     9   1     0.28   0.40  -0.28     0.59  -0.41   0.00     0.20   0.30  -0.20
    10   8     0.00   0.01   0.00     0.01   0.00   0.00     0.00   0.00   0.00
    11   1    -0.01  -0.01   0.00     0.01   0.01  -0.01     0.00  -0.02   0.01
    12   8     0.00   0.00   0.00     0.02  -0.01   0.00     0.00   0.00   0.00
    13   1     0.00  -0.03  -0.01     0.02  -0.07  -0.05     0.00   0.00   0.00
                     25                     26                     27
                      A                      A                      A
 Frequencies --   1609.2972              1742.5886              3012.0044
 Red. masses --      3.3504                 1.1284                 1.0468
 Frc consts  --      5.1123                 2.0188                 5.5954
 IR Inten    --     38.0313                23.5441                19.9762
  Atom  AN      X      Y      Z        X      Y      Z        X      Y      Z
     1   7     0.05  -0.03   0.05    -0.04   0.04  -0.03     0.00   0.00   0.00
     2   1    -0.16   0.04  -0.26     0.34  -0.13   0.60     0.00   0.00   0.00
     3   6    -0.22   0.01   0.00    -0.05   0.00   0.00     0.00   0.00   0.00
     4   1    -0.42   0.17  -0.13    -0.09   0.03  -0.04     0.00   0.00   0.00
     5   6     0.01   0.02   0.01     0.00   0.00   0.00    -0.03  -0.04  -0.03
     6   6     0.35  -0.10  -0.09     0.05  -0.01  -0.01     0.00   0.00   0.00
     7   1     0.12   0.24   0.11     0.02   0.04   0.02     0.29  -0.06  -0.20
     8   1    -0.08  -0.16  -0.14    -0.02  -0.02   0.00    -0.19   0.23  -0.18
     9   1     0.23  -0.08  -0.02     0.03   0.01  -0.01     0.21   0.31   0.78
    10   8    -0.03   0.00   0.00     0.00   0.00   0.00     0.00   0.00   0.00
    11   1    -0.21   0.16   0.08     0.49  -0.49  -0.05     0.00   0.00   0.00
    12   8    -0.09   0.04   0.02    -0.01   0.00   0.00     0.00   0.00   0.00
    13   1    -0.12   0.37   0.23    -0.01   0.04   0.03     0.00   0.00   0.00
                     28                     29                     30
                      A                      A                      A
 Frequencies --   3086.6209              3119.4441              3523.1814
 Red. masses --      1.0878                 1.0991                 1.0507
 Frc consts  --      6.1062                 6.3014                 7.6841
 IR Inten    --     26.7018                26.0338                 1.9225
  Atom  AN      X      Y      Z        X      Y      Z        X      Y      Z
     1   7     0.00   0.00   0.00     0.00   0.00   0.00     0.03  -0.01   0.05
     2   1     0.00   0.00   0.00     0.00   0.00   0.00    -0.23   0.25   0.23
     3   6     0.00   0.00   0.00     0.00   0.00   0.00     0.00   0.00   0.00
     4   1     0.00   0.00   0.01     0.00   0.00   0.00     0.00   0.01   0.01
     5   6    -0.02  -0.01   0.08     0.08  -0.05   0.01     0.00   0.00   0.00
     6   6     0.00   0.00   0.00     0.00   0.00   0.00     0.00   0.00   0.00
     7   1     0.61  -0.11  -0.35    -0.50   0.08   0.33     0.00   0.00   0.00
     8   1    -0.29   0.36  -0.22    -0.42   0.55  -0.38     0.00   0.00   0.00
     9   1    -0.13  -0.18  -0.42     0.01  -0.04  -0.06     0.00   0.00   0.00
    10   8     0.00   0.00   0.00     0.00   0.00   0.00     0.00   0.00   0.00
    11   1     0.00   0.00   0.00     0.00   0.00   0.00    -0.25  -0.19  -0.86
    12   8     0.00   0.00   0.00     0.00   0.00   0.00     0.00   0.00   0.00
    13   1     0.00   0.00   0.00     0.00   0.00   0.00     0.00   0.00   0.00
                     31                     32                     33
                      A                      A                      A
 Frequencies --   3604.2069              3684.5036              4385.1265
 Red. masses --      1.0642                 1.0930                 1.0838
 Frc consts  --      8.1453                 8.7424                12.2793
 IR Inten    --     48.0885                 9.9056                 3.2051
  Atom  AN      X      Y      Z        X      Y      Z        X      Y      Z
     1   7     0.00   0.00   0.00    -0.03   0.05   0.06     0.00   0.00   0.00
     2   1     0.00   0.00   0.00     0.58  -0.54  -0.47     0.00   0.00   0.01
     3   6     0.00   0.00   0.00     0.00   0.00   0.00    -0.01  -0.06  -0.06
     4   1     0.00   0.00   0.00     0.00   0.01   0.01     0.11   0.67   0.73
     5   6     0.00   0.00   0.00     0.00   0.00   0.00     0.00   0.00   0.00
     6   6     0.00   0.00   0.00     0.00   0.00   0.00     0.00   0.00   0.00
     7   1     0.00   0.00   0.00     0.00   0.00   0.00     0.00   0.00   0.00
     8   1     0.00   0.00   0.00     0.00   0.00   0.00     0.00   0.00   0.00
     9   1     0.00   0.00   0.00     0.00   0.00   0.00     0.00   0.01   0.00
    10   8     0.00   0.00   0.00     0.00   0.00   0.00     0.00   0.00   0.00
    11   1     0.00   0.00  -0.01    -0.13  -0.08  -0.36     0.01   0.00   0.01
    12   8     0.06   0.00   0.01     0.00   0.00   0.00     0.00   0.00   0.00
    13   1    -0.99  -0.08  -0.13     0.00   0.00   0.00     0.00   0.00   0.00

 -------------------
 - Thermochemistry -
 -------------------
 Temperature   298.150 Kelvin.  Pressure   1.00000 Atm.
 Atom     1 has atomic number  7 and mass  14.00307
 Atom     2 has atomic number  1 and mass   1.00783
 Atom     3 has atomic number  6 and mass  12.00000
 Atom     4 has atomic number  1 and mass   1.00783
 Atom     5 has atomic number  6 and mass  12.00000
 Atom     6 has atomic number  6 and mass  12.00000
 Atom     7 has atomic number  1 and mass   1.00783
 Atom     8 has atomic number  1 and mass   1.00783
 Atom     9 has atomic number  1 and mass   1.00783
 Atom    10 has atomic number  8 and mass  15.99491
 Atom    11 has atomic number  1 and mass   1.00783
 Atom    12 has atomic number  8 and mass  15.99491
 Atom    13 has atomic number  1 and mass   1.00783
 Molecular mass:    89.04768 amu.
 Principal axes and moments of inertia in atomic units:
                           1         2         3
     Eigenvalues --   369.24277 594.33237 823.21905
           X            0.99997  -0.00452  -0.00563
           Y            0.00434   0.99949  -0.03154
           Z            0.00577   0.03151   0.99949
 This molecule is an asymmetric top.
 Rotational symmetry number  1.
 Rotational temperatures (Kelvin)      0.23457     0.14573     0.10521
 Rotational constants (GHZ):           4.88768     3.03659     2.19230
    1 imaginary frequencies ignored.
 Zero-point vibrational energy     282858.7 (Joules/Mol)
                                   67.60485 (Kcal/Mol)
 Warning -- explicit consideration of   8 degrees of freedom as
           vibrations may cause significant error
 Vibrational temperatures:    147.11   302.39   325.40   370.53   459.64
          (Kelvin)            602.18   809.26   833.49   901.00   943.15
                             1031.80  1173.78  1367.39  1559.98  1584.39
                             1607.28  1726.34  1799.00  1912.48  2089.21
                             2121.16  2207.05  2215.63  2315.42  2507.19
                             4333.60  4440.95  4488.18  5069.07  5185.64
                             5301.17  6309.21
 
 Zero-point correction=                           0.107735 (Hartree/Particle)
 Thermal correction to Energy=                    0.114524
 Thermal correction to Enthalpy=                  0.115468
 Thermal correction to Gibbs Free Energy=         0.077442
 Sum of electronic and zero-point Energies=           -323.444425
 Sum of electronic and thermal Energies=              -323.437637
 Sum of electronic and thermal Enthalpies=            -323.436692
 Sum of electronic and thermal Free Energies=         -323.474719
 
                     E (Thermal)             CV                S
                      KCal/Mol        Cal/Mol-Kelvin    Cal/Mol-Kelvin
 Total                   71.865             24.027             80.033
 Electronic               0.000              0.000              0.000
 Translational            0.889              2.981             39.372
 Rotational               0.889              2.981             26.693
 Vibrational             70.087             18.065             13.967
 Vibration     1          0.604              1.947              3.411
 Vibration     2          0.642              1.825              2.042
 Vibration     3          0.650              1.801              1.909
 Vibration     4          0.667              1.750              1.678
 Vibration     5          0.705              1.636              1.313
 Vibration     6          0.781              1.430              0.897
 Vibration     7          0.918              1.112              0.519
 Vibration     8          0.936              1.076              0.487
                       Q            Log10(Q)             Ln(Q)
 Total Bot       0.239454D-35        -35.620778        -82.019871
 Total V=0       0.858738D+14         13.933861         32.083900
 Vib (Bot)       0.476495D-48        -48.321941       -111.265382
 Vib (Bot)    1  0.200632D+01          0.302399          0.696300
 Vib (Bot)    2  0.944938D+00         -0.024597         -0.056636
 Vib (Bot)    3  0.872325D+00         -0.059322         -0.136593
 Vib (Bot)    4  0.755124D+00         -0.121981         -0.280873
 Vib (Bot)    5  0.588618D+00         -0.230167         -0.529978
 Vib (Bot)    6  0.420004D+00         -0.376746         -0.867490
 Vib (Bot)    7  0.275662D+00         -0.559623         -1.288580
 Vib (Bot)    8  0.263226D+00         -0.579671         -1.334742
 Vib (V=0)       0.170882D+02          1.232697          2.838389
 Vib (V=0)    1  0.256768D+01          0.409541          0.943003
 Vib (V=0)    2  0.156907D+01          0.195642          0.450482
 Vib (V=0)    3  0.150546D+01          0.177669          0.409099
 Vib (V=0)    4  0.140566D+01          0.147879          0.340504
 Vib (V=0)    5  0.127232D+01          0.104595          0.240838
 Vib (V=0)    6  0.115300D+01          0.061828          0.142364
 Vib (V=0)    7  0.107095D+01          0.029771          0.068551
 Vib (V=0)    8  0.106506D+01          0.027372          0.063027
 Electronic      0.100000D+01          0.000000          0.000000
 Translational   0.330285D+08          7.518889         17.312882
 Rotational      0.152151D+06          5.182275         11.932629
 
                                                       Ala-S-opt-freq-pb1-6-31g
                                                             IR Spectrum
 
     4                    3 3 3           33 3                                    1   11111   1 1 1111                               
     3                    6 6 5           10 0                                    7   65544   3 2 2110   9   8  76655   4  3222   1  
     8                    8 0 2           18 1                                    4   04375   2 5 0108   5   1  15276   1  1521   0  
     5                    5 4 3           97 2                                    3   90442   9 0 0714   0   6  76692   9  9860   2  
 
     X                    X X X           XX X                                    X   XXXXX   X X XXXX   X   X  XXXXX   X  XXXX   X  
                            X             XX X                                    X   X   X   X X XXXX   X      XXXXX       X X      
                            X              X                                          X   X   X   XX X          XXXXX       X X      
                            X                                                         X   X   X   XX X          XXXXX         X      
                            X                                                             X   X   XX X           X  X         X      
                                                                                          X   X   XX             X  X         X      
                                                                                          X   X   XX             X  X                
                                                                                          X   X    X             X  X                
                                                                                          X   X    X             X  X                
                                                                                          X   X                  X  X                
                                                                                          X   X                  X  X                
                                                                                          X   X                  X                   
                                                                                          X                      X                   
                                                                                                                 X                   
                                                                                                                 X                   
                                                                                                                 X                   
                                                                                                                 X                   
                                                                                                                 X                   
                                                                                                                 X                   
                                                                                                                 X                   
 
 ***** Axes restored to original set *****
 -------------------------------------------------------------------
 Center     Atomic                   Forces (Hartrees/Bohr)
 Number     Number              X              Y              Z
 -------------------------------------------------------------------
      1        7          -0.021038251    0.004976360   -0.058765582
      2        1           0.001773604    0.001541787    0.002603657
      3        6          -0.049926557    0.049109383   -0.073298075
      4        1           0.000060417   -0.044175936    0.134964871
      5        6          -0.005016025    0.003604133    0.008578493
      6        6           0.089372547   -0.080848023    0.027804859
      7        1           0.000134698    0.000435277   -0.000566066
      8        1           0.000058119    0.000102900   -0.000329773
      9        1           0.004225784   -0.004032975    0.002107704
     10        8          -0.008503593    0.062768936   -0.035107404
     11        1          -0.000918778   -0.004251614   -0.000338826
     12        8          -0.008085139    0.016185878   -0.006358297
     13        1          -0.002136826   -0.005416105   -0.001295561
 -------------------------------------------------------------------
 Cartesian Forces:  Max     0.134964871 RMS     0.037721040
 Z-matrix is all fixed cartesians, so copy forces.
 Force constants in Cartesian coordinates: 
                1             2             3             4             5 
      1  0.373493D+00
      2  0.279645D+00  0.415687D+00
      3  0.760753D-01 -0.133430D+00  0.711842D+00
      4 -0.181577D+00 -0.195615D+00  0.125742D+00  0.190622D+00
      5 -0.162341D+00 -0.165160D+00  0.119518D+00  0.182173D+00  0.186699D+00
      6  0.116313D+00  0.138387D+00 -0.173496D+00 -0.120703D+00 -0.130734D+00
      7 -0.942037D-01 -0.380780D-01 -0.236657D-01 -0.103286D-01 -0.173389D-01
      8 -0.841381D-01 -0.131473D+00 -0.665772D-01  0.513300D-02 -0.150470D-01
      9 -0.533173D-01 -0.513007D-01 -0.127104D+00  0.908156D-02  0.102754D-01
     10 -0.122458D-01 -0.629970D-02 -0.439124D-01 -0.228880D-02 -0.896729D-04
     11 -0.151848D-01 -0.201685D-02 -0.251930D-01 -0.289987D-02 -0.101910D-04
     12 -0.243169D-01 -0.290754D-02 -0.544309D-01 -0.273458D-03  0.120207D-02
     13  0.875442D-02 -0.186915D-01 -0.713479D-02  0.163887D-02 -0.114888D-02
     14  0.622548D-02 -0.332038D-01 -0.919306D-02  0.108633D-02 -0.101292D-02
     15  0.666960D-02 -0.248805D-01 -0.441216D-03  0.333529D-03  0.346607D-03
     16 -0.225244D-01 -0.223935D-01  0.393267D-02 -0.110177D-02  0.160392D-02
     17 -0.174653D-01 -0.187017D-01  0.861888D-02 -0.582688D-02  0.282132D-03
     18 -0.276559D-01 -0.813784D-02  0.465727D-02 -0.200434D-02 -0.250906D-02
     19  0.224871D-02 -0.538882D-03 -0.932624D-03  0.116498D-04  0.537440D-03
     20 -0.127373D-02  0.271776D-02  0.132439D-02 -0.273618D-04 -0.660354D-03
     21 -0.152892D-02  0.510764D-03 -0.191117D-03  0.425016D-03 -0.578719D-03
     22  0.192049D-03  0.374612D-02  0.498223D-03 -0.405082D-03  0.666497D-03
     23  0.348461D-02 -0.639714D-02 -0.127666D-02  0.385461D-03  0.405566D-04
     24  0.324280D-03 -0.179486D-02  0.823740D-03  0.267516D-03 -0.310092D-03
     25  0.449916D-03 -0.189333D-02  0.171719D-02  0.157190D-03 -0.840535D-04
     26 -0.123707D-02  0.413724D-02  0.542446D-03 -0.564175D-05 -0.630869D-04
     27  0.853606D-03  0.747701D-03  0.290021D-02 -0.135741D-03 -0.566487D-04
     28 -0.857918D-03  0.268547D-02 -0.450626D-02 -0.233003D-03  0.459899D-03
     29 -0.518212D-02  0.328166D-02  0.254719D-02  0.155980D-02 -0.735595D-03
     30  0.130796D-02  0.174118D-02  0.164844D-02  0.469796D-04  0.339258D-03
     31 -0.728436D-01  0.168054D-03 -0.130150D+00  0.482827D-02 -0.480703D-02
     32 -0.234490D-02 -0.715560D-01  0.103638D+00  0.136839D-01 -0.419117D-02
     33 -0.962425D-01  0.807901D-01 -0.363711D+00 -0.129302D-01  0.252621D-02
     34 -0.897950D-03 -0.160218D-02  0.212508D-02 -0.112256D-02  0.159308D-03
     35 -0.957003D-03  0.284975D-02 -0.280272D-03  0.375660D-03 -0.216561D-03
     36  0.262331D-03 -0.729310D-03 -0.102711D-02 -0.260199D-03 -0.374188D-04
     37  0.121458D-04 -0.113296D-02  0.211037D-03 -0.200791D-03  0.209038D-03
     38  0.768557D-03 -0.165321D-03 -0.239112D-03 -0.227991D-04  0.753518D-04
     39  0.125506D-02  0.100348D-02 -0.147095D-02  0.410452D-03  0.182520D-04
                6             7             8             9            10 
      6  0.181046D+00
      7 -0.192714D-01  0.593482D+00
      8 -0.182647D-01 -0.102681D+00  0.700065D+00
      9  0.486821D-02  0.583124D-01 -0.266800D+00  0.586658D+00
     10 -0.256996D-02  0.352545D-02  0.761942D-01 -0.564826D-01  0.546726D-01
     11 -0.490554D-02  0.730133D-01 -0.297038D+00  0.337551D+00 -0.443138D-01
     12  0.385076D-02 -0.486964D-01  0.326466D+00 -0.314045D+00  0.727843D-01
     13 -0.905341D-03 -0.122031D+00  0.592273D-01  0.109483D-01 -0.263941D-02
     14 -0.126729D-03  0.551708D-01 -0.163472D+00 -0.345966D-02  0.539968D-02
     15 -0.444923D-03  0.851124D-02  0.418781D-02 -0.940126D-01 -0.144654D-01
     16  0.280720D-03 -0.301745D+00  0.159278D-01  0.366122D-01 -0.185037D-01
     17 -0.397935D-02 -0.894214D-03 -0.606822D-01 -0.190465D-02 -0.374247D-01
     18 -0.210336D-02  0.255560D-01 -0.176180D-02 -0.691510D-01  0.506153D-01
     19  0.346932D-03 -0.181441D-01 -0.395340D-02  0.880244D-02  0.359041D-03
     20 -0.855306D-05  0.303467D-01  0.223221D-02 -0.185506D-01 -0.753795D-03
     21 -0.117459D-04  0.207783D-02  0.138796D-02 -0.181576D-03 -0.336368D-03
     22  0.213361D-03  0.104187D-01  0.125267D-01  0.103395D-01  0.498616D-03
     23 -0.226441D-03 -0.186429D-01 -0.157959D-01 -0.133990D-01 -0.633101D-03
     24 -0.150416D-03 -0.206465D-02 -0.198619D-03 -0.214149D-02  0.115627D-03
     25  0.961336D-04 -0.557020D-02  0.919535D-02 -0.186314D-01 -0.133010D-02
     26 -0.747157D-04  0.870365D-02 -0.166929D-01  0.293393D-01  0.277116D-02
     27  0.423376D-04  0.145404D-02 -0.401529D-02  0.524238D-02  0.675989D-03
     28 -0.113113D-03 -0.512825D-01  0.382281D-01 -0.542069D-02 -0.158397D-01
     29  0.619714D-03  0.196301D-01  0.806721D-03  0.513170D-02  0.680618D-02
     30 -0.623202D-04  0.184787D-02  0.968079D-02  0.132640D-01 -0.152711D-02
     31  0.276250D-01 -0.750300D-02  0.379243D-02 -0.136323D-01 -0.214888D-03
     32  0.193178D-01 -0.119832D-01  0.363019D-02 -0.313818D-01 -0.385023D-02
     33 -0.142654D-01 -0.856206D-02  0.941975D-02 -0.130680D-01 -0.338027D-02
     34 -0.116645D-02 -0.233036D-02 -0.295700D-01  0.140371D-01 -0.528369D-02
     35  0.253885D-04  0.620164D-03 -0.423314D-02  0.595856D-03  0.389774D-02
     36  0.472171D-03  0.393580D-02  0.232694D-02  0.458807D-02 -0.123960D-02
     37 -0.146287D-03  0.571225D-02  0.117098D-03 -0.649171D-03 -0.709602D-03
     38 -0.299478D-04  0.213306D-02 -0.230083D-02  0.390345D-02 -0.170391D-02
     39  0.255038D-03  0.565205D-03  0.414808D-02  0.508301D-02 -0.277497D-03
               11            12            13            14            15 
     11  0.317547D+00
     12 -0.326739D+00  0.363023D+00
     13 -0.133568D-03  0.955243D-03  0.557528D+00
     14 -0.623820D-02 -0.830701D-02  0.399858D-01  0.512763D+00
     15  0.104496D-01  0.159224D-01  0.303847D-02  0.366648D-02  0.555156D+00
     16 -0.182500D-01  0.266308D-02 -0.171450D-01  0.640389D-02  0.877786D-02
     17 -0.370079D-02  0.160932D-01  0.317361D-01  0.296117D-02 -0.698021D-02
     18  0.191048D-01 -0.173328D-01  0.456238D-02  0.256408D-02 -0.352277D-02
     19 -0.457518D-04 -0.893571D-03 -0.228406D+00 -0.376126D-01  0.113784D+00
     20  0.113361D-02  0.157118D-02 -0.396248D-01 -0.567448D-01  0.233517D-01
     21 -0.172133D-03  0.730156D-03  0.114227D+00  0.228851D-01 -0.121407D+00
     22 -0.207361D-03 -0.599334D-03 -0.126417D+00 -0.967657D-01 -0.685776D-01
     23 -0.787077D-03  0.176233D-03 -0.941639D-01 -0.175388D+00 -0.867979D-01
     24 -0.927572D-04  0.545230D-04 -0.667712D-01 -0.869338D-01 -0.109945D+00
     25 -0.114061D-03  0.169499D-02 -0.667162D-01  0.248123D-01 -0.582347D-01
     26 -0.114417D-02 -0.304432D-02  0.236408D-01 -0.830139D-01  0.804137D-01
     27 -0.248008D-02 -0.274488D-03 -0.579097D-01  0.804136D-01 -0.245690D+00
     28  0.124075D-01 -0.386921D-02 -0.505860D-02 -0.298109D-02 -0.213734D-02
     29 -0.600690D-02 -0.695331D-03  0.244196D-03  0.976876D-03 -0.972838D-03
     30 -0.230350D-02  0.331913D-02 -0.153876D-02 -0.230876D-02  0.317645D-02
     31 -0.283261D-02 -0.249796D-02  0.107516D-03 -0.366763D-03  0.271663D-02
     32 -0.168834D-02 -0.510110D-02 -0.737825D-03  0.358328D-02 -0.146850D-02
     33 -0.580633D-02 -0.312400D-02  0.132607D-02  0.117212D-02  0.127694D-02
     34 -0.711193D-03  0.287738D-02  0.173625D-03 -0.133181D-02 -0.320720D-03
     35 -0.161496D-03  0.446064D-03 -0.575793D-03 -0.118908D-02 -0.138666D-02
     36  0.252024D-03  0.180309D-02 -0.296062D-03 -0.407086D-03 -0.275181D-03
     37 -0.727775D-03  0.171849D-03  0.209942D-03 -0.263720D-04 -0.959400D-04
     38  0.110620D-03  0.838739D-03  0.241950D-03 -0.214067D-04  0.708184D-04
     39  0.334888D-03  0.504268D-03 -0.501219D-03  0.348238D-04  0.207470D-03
               16            17            18            19            20 
     16  0.776911D+00
     17  0.473577D-01  0.549773D+00
     18 -0.667813D-01 -0.164776D+00  0.303911D+00
     19  0.113088D-02  0.220334D-02  0.121545D-02  0.251509D+00
     20  0.281514D-03 -0.540698D-02 -0.145081D-02  0.393013D-01  0.625457D-01
     21 -0.628645D-03 -0.303760D-04  0.491604D-03 -0.126353D+00 -0.267468D-01
     22 -0.215803D-04  0.164617D-03  0.130022D-03 -0.147269D-01 -0.195448D-01
     23 -0.113491D-02 -0.102172D-02  0.183009D-04 -0.245188D-02 -0.392786D-02
     24 -0.916165D-03 -0.198099D-02  0.106507D-02  0.105025D-01  0.137461D-01
     25  0.154638D-02  0.155824D-02 -0.172005D-02  0.727093D-02 -0.103793D-01
     26 -0.151690D-02 -0.102198D-02  0.627211D-03  0.154610D-02 -0.231646D-02
     27  0.279878D-03  0.114039D-02 -0.966732D-04 -0.593500D-02  0.592185D-02
     28 -0.185307D+00  0.911325D-01 -0.365970D-01 -0.105909D-02  0.135277D-02
     29  0.976442D-01 -0.247059D+00  0.705838D-01  0.524958D-03 -0.100899D-03
     30 -0.455451D-01  0.672125D-01 -0.127162D+00 -0.591627D-03  0.955847D-03
     31  0.418556D-02  0.196341D-02 -0.467633D-02 -0.669141D-04  0.162107D-03
     32  0.308067D-02  0.179848D-03 -0.222244D-03  0.221186D-03 -0.344613D-03
     33  0.685926D-03  0.905691D-03  0.235299D-04  0.152322D-03 -0.264677D-03
     34 -0.200431D+00 -0.115581D+00  0.580714D-01 -0.211128D-03  0.132090D-03
     35 -0.782516D-01 -0.217973D+00  0.890863D-01  0.222167D-03  0.798036D-03
     36  0.346185D-01  0.836082D-01 -0.920400D-01  0.980820D-05  0.110257D-03
     37 -0.369946D-01  0.107587D-02 -0.715421D-03  0.841303D-04  0.273260D-04
     38 -0.507528D-01  0.237130D-02 -0.312660D-02  0.460533D-04  0.746584D-04
     39  0.260204D-01  0.207278D-02  0.126014D-02 -0.108219D-03  0.400398D-04
               21            22            23            24            25 
     21  0.128747D+00
     22 -0.149319D-01  0.135635D+00
     23 -0.300969D-02  0.105475D+00  0.192972D+00
     24  0.895714D-02  0.753566D-01  0.972369D-01  0.115861D+00
     25  0.265621D-01 -0.473400D-02  0.689072D-02 -0.171370D-01  0.692955D-01
     26  0.576336D-02 -0.611897D-02  0.872803D-02 -0.220017D-01 -0.292627D-01
     27 -0.168014D-01 -0.292212D-02  0.679053D-02 -0.146391D-01  0.641850D-01
     28  0.124919D-03  0.429561D-03  0.225932D-03  0.266561D-03 -0.100004D-02
     29 -0.338010D-04 -0.155415D-03  0.279038D-03  0.480546D-03 -0.447181D-03
     30 -0.106327D-03  0.226688D-03  0.637184D-05 -0.397286D-03  0.581077D-03
     31  0.304588D-03 -0.236214D-03  0.620384D-04 -0.201166D-03  0.788084D-03
     32 -0.429447D-04  0.129310D-03  0.145804D-03  0.652169D-03  0.418546D-03
     33 -0.413180D-03  0.105762D-03  0.464792D-03  0.503546D-03  0.321870D-03
     34  0.161562D-04 -0.516335D-03  0.354318D-03  0.215418D-03 -0.192364D-03
     35  0.139398D-03  0.120137D-03  0.106707D-02  0.105503D-02 -0.553787D-03
     36  0.207641D-03  0.123327D-04  0.194802D-03  0.813966D-04  0.542262D-03
     37  0.413298D-04 -0.116767D-03  0.148842D-03  0.415867D-04  0.349274D-04
     38 -0.721116D-04 -0.359989D-04  0.858615D-04  0.142011D-03 -0.140704D-03
     39 -0.213534D-04  0.148359D-03 -0.178304D-03 -0.724067D-04  0.223821D-04
               26            27            28            29            30 
     26  0.912150D-01
     27 -0.894908D-01  0.269425D+00
     28  0.140546D-02 -0.398302D-03  0.230907D+00
     29  0.188876D-03  0.817636D-04 -0.133762D+00  0.308988D+00
     30 -0.538404D-03  0.314050D-04  0.504081D-01 -0.118313D+00  0.107903D+00
     31 -0.472827D-03 -0.219250D-05 -0.293197D-02  0.157894D-02  0.493524D-03
     32 -0.595471D-03  0.131554D-02  0.138576D-03  0.499520D-03  0.401560D-03
     33 -0.132707D-02 -0.274598D-03 -0.431350D-03 -0.210188D-03  0.373986D-03
     34  0.535548D-03 -0.195595D-03  0.283483D-01  0.698939D-02 -0.324353D-02
     35  0.535422D-03 -0.287006D-03 -0.176058D-01 -0.626220D-01  0.463098D-01
     36 -0.195216D-03  0.184806D-03  0.496019D-02  0.446404D-01  0.228152D-02
     37  0.113839D-04  0.500627D-04  0.388528D-02  0.456930D-02 -0.246601D-02
     38  0.434762D-04 -0.815105D-04  0.631295D-02  0.150380D-02 -0.318331D-02
     39 -0.138083D-04 -0.490684D-04 -0.228641D-02 -0.385963D-02 -0.426958D-02
               31            32            33            34            35 
     31  0.741476D-01
     32  0.148932D-02  0.706960D-01
     33  0.119353D+00 -0.872368D-01  0.392684D+00
     34 -0.422025D-03 -0.239545D-03 -0.416568D-03  0.615191D+00
     35 -0.745669D-03 -0.330204D-03 -0.425534D-03  0.742588D-01  0.323180D+00
     36  0.915408D-03  0.137847D-03  0.551708D-04  0.529511D-02 -0.149416D+00
     37  0.161569D-03 -0.578085D-05  0.183047D-04 -0.432306D+00  0.191950D-01
     38  0.859070D-05 -0.288565D-04 -0.801636D-05  0.666060D-01 -0.417044D-01
     39 -0.248302D-03 -0.928976D-05 -0.610083D-04 -0.772948D-01  0.141372D-01
               36            37            38            39 
     36  0.114934D+00
     37 -0.487559D-01  0.460228D+00
     38  0.195141D-01 -0.234609D-01  0.399558D-01
     39 -0.312654D-01  0.522945D-01 -0.177285D-01  0.298999D-01
 Leave Link  716 at Wed Apr 13 00:18:19 2016, MaxMem=    33554432 cpu:         0.0
 (Enter /usr/local/gau/g09/l103.exe)

 GradGradGradGradGradGradGradGradGradGradGradGradGradGradGradGradGradGrad
 Berny optimization.
 Search for a local minimum.
 Step number   1 out of a maximum of    2
 All quantities printed in internal units (Hartrees-Bohrs-Radians)
 Second derivative matrix not updated -- analytic derivatives used.
 ITU=  0
     Eigenvalues ---   -0.00900   0.00002   0.00186   0.00233   0.00819
     Eigenvalues ---    0.01239   0.01384   0.02922   0.03376   0.05270
     Eigenvalues ---    0.05508   0.07098   0.07559   0.08414   0.10658
     Eigenvalues ---    0.11697   0.13294   0.17141   0.18948   0.23939
     Eigenvalues ---    0.28820   0.35866   0.41904   0.52464   0.65838
     Eigenvalues ---    0.75110   0.79924   0.83818   0.93473   0.94951
     Eigenvalues ---    1.06078   1.17343   1.48038
 Eigenvalue     1 is  -9.00D-03 should be greater than     0.000000 Eigenvector:
                          Y4        Z4        Z10       Y9        Z12
   1                    0.61963   0.44422  -0.27912   0.20905   0.20553
                          Y11       Z13       X4        Y10       Z3
   1                   -0.17778   0.15625  -0.15478  -0.15307  -0.14908
 Quadratic step=1.213D+03 exceeds max=3.000D-01 adjusted using Lamda=-2.978D-01.
 Angle between NR and scaled steps=  72.56 degrees.
 Angle between quadratic step and forces=  38.44 degrees.
 Linear search not attempted -- first point.
 TrRot=  0.003479  0.000454 -0.009865 -1.468352  0.003264  1.469486
 Variable       Old X    -DE/DX   Delta X   Delta X   Delta X     New X
                                 (Linear)    (Quad)   (Total)
    X1       -2.38245  -0.02104   0.00000  -0.03835  -0.03234  -2.41479
    Y1       -2.47255   0.00498   0.00000   0.00939   0.00962  -2.46293
    Z1       -0.71391  -0.05877   0.00000  -0.05651  -0.07357  -0.78748
    X2       -3.57765   0.00177   0.00000   0.00068   0.00832  -3.56932
    Y2       -3.60717   0.00154   0.00000   0.00655   0.00219  -3.60498
    Z2        0.24354   0.00260   0.00000  -0.00317  -0.02355   0.21999
    X3       -1.17103  -0.04993   0.00000  -0.03073  -0.02648  -1.19752
    Y3       -0.45430   0.04911   0.00000  -0.03005  -0.03311  -0.48741
    Z3        0.69721  -0.07330   0.00000  -0.03544  -0.04649   0.65072
    X4       -0.87850   0.00006   0.00000  -0.05943  -0.05327  -0.93176
    Y4       -1.78024  -0.04418   0.00000   0.05162   0.04401  -1.73624
    Z4        1.92860   0.13496   0.00000   0.23111   0.21593   2.14453
    X5       -2.62802  -0.00502   0.00000  -0.00222  -0.00067  -2.62869
    Y5        1.99383   0.00360   0.00000   0.00658   0.00082   1.99465
    Z5        0.98530   0.00858   0.00000   0.00683   0.00432   0.98963
    X6        1.51483   0.08937   0.00000   0.07738   0.08145   1.59628
    Y6       -0.34170  -0.08085   0.00000  -0.08667  -0.08543  -0.42713
    Z6        0.27929   0.02780   0.00000   0.03469   0.02291   0.30220
    X7       -4.36120   0.00013   0.00000  -0.00147   0.00082  -4.36038
    Y7        1.65721   0.00044   0.00000   0.00677  -0.00447   1.65274
    Z7        2.07084  -0.00057   0.00000   0.00372   0.00069   2.07153
    X8       -1.53329   0.00006   0.00000   0.00542   0.00566  -1.52763
    Y8        3.44290   0.00010   0.00000   0.00234  -0.00539   3.43751
    Z8        1.98095  -0.00033   0.00000  -0.00022   0.00159   1.98254
    X9       -3.20004   0.00423   0.00000   0.00829   0.00833  -3.19171
    Y9        2.78864  -0.00403   0.00000  -0.00465  -0.00507   2.78357
    Z9       -0.85575   0.00211   0.00000   0.00589   0.00612  -0.84963
   X10        2.70098  -0.00850   0.00000   0.03883   0.04526   2.74625
   Y10       -2.31605   0.06277   0.00000   0.06078   0.06043  -2.25563
   Z10        1.23183  -0.03511   0.00000  -0.02182  -0.03992   1.19191
   X11       -2.99432  -0.00092   0.00000  -0.02381  -0.01885  -3.01318
   Y11       -2.04316  -0.00425   0.00000  -0.00244   0.00275  -2.04041
   Z11       -2.48227  -0.00034   0.00000  -0.02849  -0.04399  -2.52626
   X12        2.82257  -0.00809   0.00000  -0.01395  -0.01252   2.81005
   Y12        1.59945   0.01619   0.00000   0.00672   0.01263   1.61209
   Z12       -0.70365  -0.00636   0.00000  -0.00044  -0.00601  -0.70966
   X13        4.65054  -0.00214   0.00000  -0.00743  -0.00571   4.64483
   Y13        1.42372  -0.00542   0.00000  -0.00614   0.00103   1.42475
   Z13       -0.43748  -0.00130   0.00000  -0.01125  -0.01804  -0.45552
         Item               Value     Threshold  Converged?
 Maximum Force            0.134965     0.000450     NO 
 RMS     Force            0.037721     0.000300     NO 
 Maximum Displacement     0.215933     0.001800     NO 
 RMS     Displacement     0.047377     0.001200     NO 
 Predicted change in Energy=-4.116921D-02
 GradGradGradGradGradGradGradGradGradGradGradGradGradGradGradGradGradGrad

 Leave Link  103 at Wed Apr 13 00:18:19 2016, MaxMem=    33554432 cpu:         0.0
 (Enter /usr/local/gau/g09/l9999.exe)
 1\1\GINC-KALI\Freq\RB3LYP\6-31G\C3H7N1O2\ROOT\13-Apr-2016\0\\#p freq r
 b3lyp/6-31g\\Ala-S-opt-freq-pb1-6-31g\\0,1\N,-1.26073751,-1.30841689,-
 0.37778296\H,-1.89321051,-1.90883089,0.12887804\C,-0.61968451,-0.24040
 489,0.36894804\H,-0.46488072,-0.9420636,1.02056976\C,-1.39068651,1.055
 08811,0.52140004\C,0.80161349,-0.18082189,0.14779304\H,-2.30784951,0.8
 7695811,1.09584104\H,-0.81138051,1.82190511,1.04827304\H,-1.69338851,1
 .47568611,-0.45284596\O,1.42929949,-1.22560189,0.65185504\H,-1.5845275
 1,-1.08119289,-1.31356096\O,1.49364149,0.84639411,-0.37235296\H,2.4609
 6049,0.75340111,-0.23150696\\Version=ES64L-G09RevD.01\State=1-A\HF=-32
 3.5521605\RMSD=3.975e-09\RMSF=3.772e-02\ZeroPoint=0.1077352\Thermal=0.
 1145239\Dipole=-0.7151141,0.7836104,-0.1334566\DipoleDeriv=-0.5566411,
 0.2477234,0.1171104,0.197829,-0.72046,-0.246891,0.0204366,-0.3224173,-
 0.1800104,0.1301561,-0.1667338,-0.0079375,-0.0657787,0.2997906,0.01319
 59,0.0097651,0.0248888,0.0942568,0.2257845,-0.0236853,0.0599153,-0.195
 669,0.3723888,0.2006637,0.0686374,0.3246501,0.0470227,0.1064704,0.0560
 116,-0.0254984,0.0389182,0.1026559,0.0541658,0.0625407,0.0028233,0.062
 2565,0.0067959,0.0619354,-0.0037285,-0.0053254,-0.0429257,-0.0737071,0
 .0318105,-0.0470777,0.1324618,1.1672049,0.1860413,-0.1285934,0.3591897
 ,1.0482612,-0.4736505,-0.1712226,-0.519713,0.4719271,-0.110247,0.00962
 62,0.0944812,-0.0218131,0.0427888,0.0416672,0.0963205,0.0086161,0.0215
 552,0.0201858,-0.0851407,-0.0647813,-0.0528125,-0.0642271,-0.0839198,-
 0.0604355,-0.0830802,0.0215253,0.0564708,0.0390059,-0.0300291,0.035015
 ,0.0312522,0.0245553,-0.0653444,0.0796608,-0.106688,-0.8279315,0.21081
 09,-0.0623348,0.0068358,-0.7016639,0.1475083,0.017836,0.184906,-0.4808
 124,0.1689884,-0.138381,-0.1685773,-0.0733182,0.1853871,0.12469,-0.125
 0793,0.0528495,0.0556364,-0.597148,-0.4575606,0.2631652,-0.3416318,-0.
 8850296,0.2189318,0.1999436,0.2581187,-0.5306504,0.2099108,0.0603469,-
 0.0431916,0.1185609,0.3317816,0.0527904,-0.0852085,0.0357748,0.3915193
 \Polar=47.5709265,2.5983359,45.6901126,1.4269648,-3.24726,33.5787663\P
 G=C01 [X(C3H7N1O2)]\NImag=1\\0.37349306,0.27964503,0.41568665,0.076075
 34,-0.13342988,0.71184233,-0.18157701,-0.19561459,0.12574188,0.1906216
 8,-0.16234063,-0.16515978,0.11951848,0.18217304,0.18669866,0.11631344,
 0.13838748,-0.17349594,-0.12070303,-0.13073437,0.18104561,-0.09420371,
 -0.03807801,-0.02366572,-0.01032864,-0.01733888,-0.01927144,0.59348191
 ,-0.08413809,-0.13147253,-0.06657725,0.00513300,-0.01504704,-0.0182647
 3,-0.10268055,0.70006458,-0.05331734,-0.05130070,-0.12710396,0.0090815
 6,0.01027543,0.00486821,0.05831237,-0.26680007,0.58665785,-0.01224576,
 -0.00629970,-0.04391240,-0.00228880,-0.00008967,-0.00256996,0.00352545
 ,0.07619418,-0.05648265,0.05467260,-0.01518485,-0.00201685,-0.02519296
 ,-0.00289987,-0.00001019,-0.00490554,0.07301331,-0.29703765,0.33755064
 ,-0.04431377,0.31754742,-0.02431691,-0.00290754,-0.05443085,-0.0002734
 6,0.00120207,0.00385076,-0.04869644,0.32646643,-0.31404490,0.07278435,
 -0.32673867,0.36302276,0.00875442,-0.01869150,-0.00713479,0.00163887,-
 0.00114888,-0.00090534,-0.12203109,0.05922725,0.01094827,-0.00263941,-
 0.00013357,0.00095524,0.55752848,0.00622548,-0.03320376,-0.00919306,0.
 00108633,-0.00101292,-0.00012673,0.05517079,-0.16347151,-0.00345966,0.
 00539968,-0.00623820,-0.00830701,0.03998585,0.51276274,0.00666960,-0.0
 2488053,-0.00044122,0.00033353,0.00034661,-0.00044492,0.00851124,0.004
 18781,-0.09401255,-0.01446538,0.01044962,0.01592240,0.00303847,0.00366
 648,0.55515637,-0.02252440,-0.02239351,0.00393267,-0.00110177,0.001603
 92,0.00028072,-0.30174467,0.01592784,0.03661224,-0.01850373,-0.0182500
 5,0.00266308,-0.01714502,0.00640389,0.00877786,0.77691064,-0.01746528,
 -0.01870170,0.00861888,-0.00582688,0.00028213,-0.00397935,-0.00089421,
 -0.06068216,-0.00190465,-0.03742475,-0.00370079,0.01609325,0.03173614,
 0.00296117,-0.00698021,0.04735772,0.54977282,-0.02765592,-0.00813784,0
 .00465727,-0.00200434,-0.00250906,-0.00210336,0.02555595,-0.00176180,-
 0.06915099,0.05061526,0.01910481,-0.01733285,0.00456238,0.00256408,-0.
 00352277,-0.06678134,-0.16477614,0.30391135,0.00224871,-0.00053888,-0.
 00093262,0.00001165,0.00053744,0.00034693,-0.01814409,-0.00395340,0.00
 880244,0.00035904,-0.00004575,-0.00089357,-0.22840595,-0.03761261,0.11
 378429,0.00113088,0.00220334,0.00121545,0.25150873,-0.00127373,0.00271
 776,0.00132439,-0.00002736,-0.00066035,-0.00000855,0.03034669,0.002232
 21,-0.01855055,-0.00075380,0.00113361,0.00157118,-0.03962477,-0.056744
 81,0.02335165,0.00028151,-0.00540698,-0.00145081,0.03930127,0.06254570
 ,-0.00152892,0.00051076,-0.00019112,0.00042502,-0.00057872,-0.00001175
 ,0.00207783,0.00138796,-0.00018158,-0.00033637,-0.00017213,0.00073016,
 0.11422662,0.02288505,-0.12140716,-0.00062865,-0.00003038,0.00049160,-
 0.12635274,-0.02674676,0.12874731,0.00019205,0.00374612,0.00049822,-0.
 00040508,0.00066650,0.00021336,0.01041865,0.01252675,0.01033953,0.0004
 9862,-0.00020736,-0.00059933,-0.12641654,-0.09676568,-0.06857756,-0.00
 002158,0.00016462,0.00013002,-0.01472691,-0.01954480,-0.01493190,0.135
 63455,0.00348461,-0.00639714,-0.00127666,0.00038546,0.00004056,-0.0002
 2644,-0.01864294,-0.01579590,-0.01339895,-0.00063310,-0.00078708,0.000
 17623,-0.09416388,-0.17538847,-0.08679792,-0.00113491,-0.00102172,0.00
 001830,-0.00245188,-0.00392786,-0.00300969,0.10547480,0.19297181,0.000
 32428,-0.00179486,0.00082374,0.00026752,-0.00031009,-0.00015042,-0.002
 06465,-0.00019862,-0.00214149,0.00011563,-0.00009276,0.00005452,-0.066
 77121,-0.08693384,-0.10994535,-0.00091617,-0.00198099,0.00106507,0.010
 50254,0.01374613,0.00895714,0.07535664,0.09723694,0.11586063,0.0004499
 2,-0.00189333,0.00171719,0.00015719,-0.00008405,0.00009613,-0.00557020
 ,0.00919535,-0.01863138,-0.00133010,-0.00011406,0.00169499,-0.06671624
 ,0.02481229,-0.05823468,0.00154638,0.00155824,-0.00172005,0.00727093,-
 0.01037932,0.02656213,-0.00473400,0.00689072,-0.01713698,0.06929551,-0
 .00123707,0.00413724,0.00054245,-0.00000564,-0.00006309,-0.00007472,0.
 00870365,-0.01669295,0.02933934,0.00277116,-0.00114417,-0.00304432,0.0
 2364083,-0.08301390,0.08041366,-0.00151690,-0.00102198,0.00062721,0.00
 154610,-0.00231646,0.00576336,-0.00611897,0.00872803,-0.02200166,-0.02
 926272,0.09121498,0.00085361,0.00074770,0.00290021,-0.00013574,-0.0000
 5665,0.00004234,0.00145404,-0.00401529,0.00524238,0.00067599,-0.002480
 08,-0.00027449,-0.05790967,0.08041361,-0.24569048,0.00027988,0.0011403
 9,-0.00009667,-0.00593500,0.00592185,-0.01680140,-0.00292212,0.0067905
 3,-0.01463910,0.06418505,-0.08949084,0.26942467,-0.00085792,0.00268547
 ,-0.00450626,-0.00023300,0.00045990,-0.00011311,-0.05128250,0.03822812
 ,-0.00542069,-0.01583973,0.01240755,-0.00386921,-0.00505860,-0.0029810
 9,-0.00213734,-0.18530710,0.09113252,-0.03659703,-0.00105909,0.0013527
 7,0.00012492,0.00042956,0.00022593,0.00026656,-0.00100004,0.00140546,-
 0.00039830,0.23090677,-0.00518212,0.00328166,0.00254719,0.00155980,-0.
 00073560,0.00061971,0.01963013,0.00080672,0.00513170,0.00680618,-0.006
 00690,-0.00069533,0.00024420,0.00097688,-0.00097284,0.09764421,-0.2470
 5911,0.07058384,0.00052496,-0.00010090,-0.00003380,-0.00015541,0.00027
 904,0.00048055,-0.00044718,0.00018888,0.00008176,-0.13376238,0.3089880
 5,0.00130796,0.00174118,0.00164844,0.00004698,0.00033926,-0.00006232,0
 .00184787,0.00968079,0.01326399,-0.00152711,-0.00230350,0.00331913,-0.
 00153876,-0.00230876,0.00317645,-0.04554512,0.06721252,-0.12716232,-0.
 00059163,0.00095585,-0.00010633,0.00022669,0.00000637,-0.00039729,0.00
 058108,-0.00053840,0.00003141,0.05040806,-0.11831334,0.10790290,-0.072
 84355,0.00016805,-0.13014963,0.00482827,-0.00480703,0.02762503,-0.0075
 0300,0.00379243,-0.01363229,-0.00021489,-0.00283261,-0.00249796,0.0001
 0752,-0.00036676,0.00271663,0.00418556,0.00196341,-0.00467633,-0.00006
 691,0.00016211,0.00030459,-0.00023621,0.00006204,-0.00020117,0.0007880
 8,-0.00047283,-0.00000219,-0.00293197,0.00157894,0.00049352,0.07414756
 ,-0.00234490,-0.07155598,0.10363781,0.01368386,-0.00419117,0.01931780,
 -0.01198319,0.00363019,-0.03138183,-0.00385023,-0.00168834,-0.00510110
 ,-0.00073783,0.00358328,-0.00146850,0.00308067,0.00017985,-0.00022224,
 0.00022119,-0.00034461,-0.00004294,0.00012931,0.00014580,0.00065217,0.
 00041855,-0.00059547,0.00131554,0.00013858,0.00049952,0.00040156,0.001
 48932,0.07069598,-0.09624252,0.08079006,-0.36371084,-0.01293017,0.0025
 2621,-0.01426543,-0.00856206,0.00941975,-0.01306804,-0.00338027,-0.005
 80633,-0.00312400,0.00132607,0.00117212,0.00127694,0.00068593,0.000905
 69,0.00002353,0.00015232,-0.00026468,-0.00041318,0.00010576,0.00046479
 ,0.00050355,0.00032187,-0.00132707,-0.00027460,-0.00043135,-0.00021019
 ,0.00037399,0.11935269,-0.08723681,0.39268393,-0.00089795,-0.00160218,
 0.00212508,-0.00112256,0.00015931,-0.00116645,-0.00233036,-0.02956996,
 0.01403711,-0.00528369,-0.00071119,0.00287738,0.00017363,-0.00133181,-
 0.00032072,-0.20043055,-0.11558073,0.05807136,-0.00021113,0.00013209,0
 .00001616,-0.00051633,0.00035432,0.00021542,-0.00019236,0.00053555,-0.
 00019559,0.02834833,0.00698939,-0.00324353,-0.00042202,-0.00023954,-0.
 00041657,0.61519108,-0.00095700,0.00284975,-0.00028027,0.00037566,-0.0
 0021656,0.00002539,0.00062016,-0.00423314,0.00059586,0.00389774,-0.000
 16150,0.00044606,-0.00057579,-0.00118908,-0.00138666,-0.07825163,-0.21
 797283,0.08908626,0.00022217,0.00079804,0.00013940,0.00012014,0.001067
 07,0.00105503,-0.00055379,0.00053542,-0.00028701,-0.01760577,-0.062622
 04,0.04630979,-0.00074567,-0.00033020,-0.00042553,0.07425880,0.3231795
 1,0.00026233,-0.00072931,-0.00102711,-0.00026020,-0.00003742,0.0004721
 7,0.00393580,0.00232694,0.00458807,-0.00123960,0.00025202,0.00180309,-
 0.00029606,-0.00040709,-0.00027518,0.03461849,0.08360821,-0.09204001,0
 .00000981,0.00011026,0.00020764,0.00001233,0.00019480,0.00008140,0.000
 54226,-0.00019522,0.00018481,0.00496019,0.04464037,0.00228152,0.000915
 41,0.00013785,0.00005517,0.00529511,-0.14941556,0.11493387,0.00001215,
 -0.00113296,0.00021104,-0.00020079,0.00020904,-0.00014629,0.00571225,0
 .00011710,-0.00064917,-0.00070960,-0.00072778,0.00017185,0.00020994,-0
 .00002637,-0.00009594,-0.03699463,0.00107587,-0.00071542,0.00008413,0.
 00002733,0.00004133,-0.00011677,0.00014884,0.00004159,0.00003493,0.000
 01138,0.00005006,0.00388528,0.00456930,-0.00246601,0.00016157,-0.00000
 578,0.00001830,-0.43230608,0.01919497,-0.04875587,0.46022762,0.0007685
 6,-0.00016532,-0.00023911,-0.00002280,0.00007535,-0.00002995,0.0021330
 6,-0.00230083,0.00390345,-0.00170391,0.00011062,0.00083874,0.00024195,
 -0.00002141,0.00007082,-0.05075276,0.00237130,-0.00312660,0.00004605,0
 .00007466,-0.00007211,-0.00003600,0.00008586,0.00014201,-0.00014070,0.
 00004348,-0.00008151,0.00631295,0.00150380,-0.00318331,0.00000859,-0.0
 0002886,-0.00000802,0.06660596,-0.04170444,0.01951415,-0.02346094,0.03
 995580,0.00125506,0.00100348,-0.00147095,0.00041045,0.00001825,0.00025
 504,0.00056521,0.00414808,0.00508301,-0.00027750,0.00033489,0.00050427
 ,-0.00050122,0.00003482,0.00020747,0.02602042,0.00207278,0.00126014,-0
 .00010822,0.00004004,-0.00002135,0.00014836,-0.00017830,-0.00007241,0.
 00002238,-0.00001381,-0.00004907,-0.00228641,-0.00385963,-0.00426958,-
 0.00024830,-0.00000929,-0.00006101,-0.07729475,0.01413724,-0.03126544,
 0.05229453,-0.01772855,0.02989988\\0.02103825,-0.00497636,0.05876558,-
 0.00177360,-0.00154179,-0.00260366,0.04992656,-0.04910938,0.07329808,-
 0.00006042,0.04417594,-0.13496487,0.00501602,-0.00360413,-0.00857849,-
 0.08937255,0.08084802,-0.02780486,-0.00013470,-0.00043528,0.00056607,-
 0.00005812,-0.00010290,0.00032977,-0.00422578,0.00403298,-0.00210770,0
 .00850359,-0.06276894,0.03510740,0.00091878,0.00425161,0.00033883,0.00
 808514,-0.01618588,0.00635830,0.00213683,0.00541611,0.00129556\\\@


 IN NATURE THERE ARE NEITHER REWARDS OR
 PUNISHMENTS -- THERE ARE CONSEQUENCES.

                            -- ROBERT GREEN INGERSOLL
 Job cpu time:       0 days  0 hours  1 minutes 39.2 seconds.
 File lengths (MBytes):  RWF=     13 Int=      0 D2E=      0 Chk=      1 Scr=      1
 Normal termination of Gaussian 09 at Wed Apr 13 00:18:19 2016.
