 Entering Gaussian System, Link 0=g09
 Input=Ala-S-opt-freq-pb1-6-31g.com
 Output=Ala-S-opt-freq-pb1-6-31g.log
 Initial command:
 /usr/local/gau/g09/l1.exe "/tmp/Gau-5786.inp" -scrdir="/tmp/"
 Entering Link 1 = /usr/local/gau/g09/l1.exe PID=      5788.
  
 Copyright (c) 1988,1990,1992,1993,1995,1998,2003,2009,2013,
            Gaussian, Inc.  All Rights Reserved.
  
 This is part of the Gaussian(R) 09 program.  It is based on
 the Gaussian(R) 03 system (copyright 2003, Gaussian, Inc.),
 the Gaussian(R) 98 system (copyright 1998, Gaussian, Inc.),
 the Gaussian(R) 94 system (copyright 1995, Gaussian, Inc.),
 the Gaussian 92(TM) system (copyright 1992, Gaussian, Inc.),
 the Gaussian 90(TM) system (copyright 1990, Gaussian, Inc.),
 the Gaussian 88(TM) system (copyright 1988, Gaussian, Inc.),
 the Gaussian 86(TM) system (copyright 1986, Carnegie Mellon
 University), and the Gaussian 82(TM) system (copyright 1983,
 Carnegie Mellon University). Gaussian is a federally registered
 trademark of Gaussian, Inc.
  
 This software contains proprietary and confidential information,
 including trade secrets, belonging to Gaussian, Inc.
  
 This software is provided under written license and may be
 used, copied, transmitted, or stored only in accord with that
 written license.
  
 The following legend is applicable only to US Government
 contracts under FAR:
  
                    RESTRICTED RIGHTS LEGEND
  
 Use, reproduction and disclosure by the US Government is
 subject to restrictions as set forth in subparagraphs (a)
 and (c) of the Commercial Computer Software - Restricted
 Rights clause in FAR 52.227-19.
  
 Gaussian, Inc.
 340 Quinnipiac St., Bldg. 40, Wallingford CT 06492
  
  
 ---------------------------------------------------------------
 Warning -- This program may not be used in any manner that
 competes with the business of Gaussian, Inc. or will provide
 assistance to any competitor of Gaussian, Inc.  The licensee
 of this program is prohibited from giving any competitor of
 Gaussian, Inc. access to this program.  By using this program,
 the user acknowledges that Gaussian, Inc. is engaged in the
 business of creating and licensing software in the field of
 computational chemistry and represents and warrants to the
 licensee that it is not a competitor of Gaussian, Inc. and that
 it will not use this program in any manner prohibited above.
 ---------------------------------------------------------------
  

 Cite this work as:
 Gaussian 09, Revision D.01,
 M. J. Frisch, G. W. Trucks, H. B. Schlegel, G. E. Scuseria, 
 M. A. Robb, J. R. Cheeseman, G. Scalmani, V. Barone, B. Mennucci, 
 G. A. Petersson, H. Nakatsuji, M. Caricato, X. Li, H. P. Hratchian, 
 A. F. Izmaylov, J. Bloino, G. Zheng, J. L. Sonnenberg, M. Hada, 
 M. Ehara, K. Toyota, R. Fukuda, J. Hasegawa, M. Ishida, T. Nakajima, 
 Y. Honda, O. Kitao, H. Nakai, T. Vreven, J. A. Montgomery, Jr., 
 J. E. Peralta, F. Ogliaro, M. Bearpark, J. J. Heyd, E. Brothers, 
 K. N. Kudin, V. N. Staroverov, T. Keith, R. Kobayashi, J. Normand, 
 K. Raghavachari, A. Rendell, J. C. Burant, S. S. Iyengar, J. Tomasi, 
 M. Cossi, N. Rega, J. M. Millam, M. Klene, J. E. Knox, J. B. Cross, 
 V. Bakken, C. Adamo, J. Jaramillo, R. Gomperts, R. E. Stratmann, 
 O. Yazyev, A. J. Austin, R. Cammi, C. Pomelli, J. W. Ochterski, 
 R. L. Martin, K. Morokuma, V. G. Zakrzewski, G. A. Voth, 
 P. Salvador, J. J. Dannenberg, S. Dapprich, A. D. Daniels, 
 O. Farkas, J. B. Foresman, J. V. Ortiz, J. Cioslowski, 
 and D. J. Fox, Gaussian, Inc., Wallingford CT, 2013.
 
 ******************************************
 Gaussian 09:  ES64L-G09RevD.01 24-Apr-2013
                14-Apr-2016 
 ******************************************
 %chk=Ala-S-opt-freq-pb1-6-31g.chk
 ------------------------
 #p opt freq rb3lyp/6-31g
 ------------------------
 1/14=-1,18=20,19=15,26=3,38=1/1,3;
 2/9=110,12=2,17=6,18=5,40=1/2;
 3/5=1,6=6,11=2,16=1,25=1,30=1,71=1,74=-5,116=1/1,2,3;
 4//1;
 5/5=2,38=5/2;
 6/7=2,8=2,9=2,10=2,28=1/1;
 7//1,2,3,16;
 1/14=-1,18=20,19=15,26=3/3(2);
 2/9=110/2;
 99//99;
 2/9=110/2;
 3/5=1,6=6,11=2,16=1,25=1,30=1,71=1,74=-5,116=1/1,2,3;
 4/5=5,16=3,69=1/1;
 5/5=2,38=5/2;
 7//1,2,3,16;
 1/14=-1,18=20,19=15,26=3/3(-5);
 2/9=110/2;
 6/7=2,8=2,9=2,10=2,19=2,28=1/1;
 99/9=1/99;
 Leave Link    1 at Thu Apr 14 14:27:58 2016, MaxMem=           0 cpu:         0.0
 (Enter /usr/local/gau/g09/l101.exe)
 ------------------------
 Ala-S-opt-freq-pb1-6-31g
 ------------------------
 Symbolic Z-matrix:
 Charge =  0 Multiplicity = 1
 N                    -1.41515  -1.08616  -0.44237 
 H                    -1.19241  -1.6585    0.3664 
 C                    -0.65403   0.15792  -0.40998 
 H                    -0.64316  -0.08333   0.73351 
 C                    -1.19795   1.24002   0.55106 
 C                     0.77509  -0.16871  -0.01055 
 H                    -1.20783   0.87043   1.58011 
 H                    -0.59729   2.15221   0.50792 
 H                    -2.22253   1.49551   0.26808 
 O                     1.10761  -1.09841   0.68073 
 H                    -2.41213  -0.90308  -0.44562 
 O                     1.65384   0.74679  -0.48074 
 H                     2.52999   0.5041   -0.1444 
 
 NAtoms=     13 NQM=       13 NQMF=       0 NMMI=      0 NMMIF=      0
                NMic=       0 NMicF=      0.
                    Isotopes and Nuclear Properties:
 (Nuclear quadrupole moments (NQMom) in fm**2, nuclear magnetic moments (NMagM)
  in nuclear magnetons)

  Atom         1           2           3           4           5           6           7           8           9          10
 IAtWgt=          14           1          12           1          12          12           1           1           1          16
 AtmWgt=  14.0030740   1.0078250  12.0000000   1.0078250  12.0000000  12.0000000   1.0078250   1.0078250   1.0078250  15.9949146
 NucSpn=           2           1           0           1           0           0           1           1           1           0
 AtZEff=   0.0000000   0.0000000   0.0000000   0.0000000   0.0000000   0.0000000   0.0000000   0.0000000   0.0000000   0.0000000
 NQMom=    2.0440000   0.0000000   0.0000000   0.0000000   0.0000000   0.0000000   0.0000000   0.0000000   0.0000000   0.0000000
 NMagM=    0.4037610   2.7928460   0.0000000   2.7928460   0.0000000   0.0000000   2.7928460   2.7928460   2.7928460   0.0000000
 AtZNuc=   7.0000000   1.0000000   6.0000000   1.0000000   6.0000000   6.0000000   1.0000000   1.0000000   1.0000000   8.0000000

  Atom        11          12          13
 IAtWgt=           1          16           1
 AtmWgt=   1.0078250  15.9949146   1.0078250
 NucSpn=           1           0           1
 AtZEff=   0.0000000   0.0000000   0.0000000
 NQMom=    0.0000000   0.0000000   0.0000000
 NMagM=    2.7928460   0.0000000   2.7928460
 AtZNuc=   1.0000000   8.0000000   1.0000000
 Leave Link  101 at Thu Apr 14 14:27:58 2016, MaxMem=    33554432 cpu:         0.1
 (Enter /usr/local/gau/g09/l103.exe)

 GradGradGradGradGradGradGradGradGradGradGradGradGradGradGradGradGradGrad
 Berny optimization.
 Initialization pass.
                           ----------------------------
                           !    Initial Parameters    !
                           ! (Angstroms and Degrees)  !
 --------------------------                            --------------------------
 ! Name  Definition              Value          Derivative Info.                !
 --------------------------------------------------------------------------------
 ! R1    R(1,2)                  1.0155         estimate D2E/DX2                !
 ! R2    R(1,3)                  1.4588         estimate D2E/DX2                !
 ! R3    R(1,11)                 1.0137         estimate D2E/DX2                !
 ! R4    R(3,4)                  1.1687         estimate D2E/DX2                !
 ! R5    R(3,5)                  1.5461         estimate D2E/DX2                !
 ! R6    R(3,6)                  1.5194         estimate D2E/DX2                !
 ! R7    R(5,7)                  1.0935         estimate D2E/DX2                !
 ! R8    R(5,8)                  1.093          estimate D2E/DX2                !
 ! R9    R(5,9)                  1.0932         estimate D2E/DX2                !
 ! R10   R(6,10)                 1.2053         estimate D2E/DX2                !
 ! R11   R(6,12)                 1.3533         estimate D2E/DX2                !
 ! R12   R(12,13)                0.9694         estimate D2E/DX2                !
 ! A1    A(2,1,3)              110.397          estimate D2E/DX2                !
 ! A2    A(2,1,11)             108.6676         estimate D2E/DX2                !
 ! A3    A(3,1,11)             111.0515         estimate D2E/DX2                !
 ! A4    A(1,3,4)               81.4038         estimate D2E/DX2                !
 ! A5    A(1,3,5)              115.2856         estimate D2E/DX2                !
 ! A6    A(1,3,6)              108.2548         estimate D2E/DX2                !
 ! A7    A(4,3,5)               62.5852         estimate D2E/DX2                !
 ! A8    A(4,3,6)               71.9206         estimate D2E/DX2                !
 ! A9    A(5,3,6)              108.5388         estimate D2E/DX2                !
 ! A10   A(3,5,7)              110.5846         estimate D2E/DX2                !
 ! A11   A(3,5,8)              111.4838         estimate D2E/DX2                !
 ! A12   A(3,5,9)              109.4138         estimate D2E/DX2                !
 ! A13   A(7,5,8)              108.9163         estimate D2E/DX2                !
 ! A14   A(7,5,9)              108.308          estimate D2E/DX2                !
 ! A15   A(8,5,9)              108.0458         estimate D2E/DX2                !
 ! A16   A(3,6,10)             125.1745         estimate D2E/DX2                !
 ! A17   A(3,6,12)             111.962          estimate D2E/DX2                !
 ! A18   A(10,6,12)            122.815          estimate D2E/DX2                !
 ! A19   A(6,12,13)            107.2766         estimate D2E/DX2                !
 ! D1    D(2,1,3,4)            -24.174          estimate D2E/DX2                !
 ! D2    D(2,1,3,5)            -78.2711         estimate D2E/DX2                !
 ! D3    D(2,1,3,6)             43.4703         estimate D2E/DX2                !
 ! D4    D(11,1,3,4)            96.4252         estimate D2E/DX2                !
 ! D5    D(11,1,3,5)            42.328          estimate D2E/DX2                !
 ! D6    D(11,1,3,6)           164.0694         estimate D2E/DX2                !
 ! D7    D(1,3,5,7)             60.0762         estimate D2E/DX2                !
 ! D8    D(1,3,5,8)           -178.5935         estimate D2E/DX2                !
 ! D9    D(1,3,5,9)            -59.1421         estimate D2E/DX2                !
 ! D10   D(4,3,5,7)             -4.3775         estimate D2E/DX2                !
 ! D11   D(4,3,5,8)            116.9528         estimate D2E/DX2                !
 ! D12   D(4,3,5,9)           -123.5958         estimate D2E/DX2                !
 ! D13   D(6,3,5,7)            -61.5121         estimate D2E/DX2                !
 ! D14   D(6,3,5,8)             59.8182         estimate D2E/DX2                !
 ! D15   D(6,3,5,9)            179.2696         estimate D2E/DX2                !
 ! D16   D(1,3,6,10)           -28.5941         estimate D2E/DX2                !
 ! D17   D(1,3,6,12)           153.8859         estimate D2E/DX2                !
 ! D18   D(4,3,6,10)            45.5485         estimate D2E/DX2                !
 ! D19   D(4,3,6,12)          -131.9715         estimate D2E/DX2                !
 ! D20   D(5,3,6,10)            97.2085         estimate D2E/DX2                !
 ! D21   D(5,3,6,12)           -80.3115         estimate D2E/DX2                !
 ! D22   D(3,6,12,13)          176.6707         estimate D2E/DX2                !
 ! D23   D(10,6,12,13)          -0.9173         estimate D2E/DX2                !
 --------------------------------------------------------------------------------
 Trust Radius=3.00D-01 FncErr=1.00D-07 GrdErr=1.00D-06
 Number of steps in this run=     64 maximum allowed number of steps=    100.
 GradGradGradGradGradGradGradGradGradGradGradGradGradGradGradGradGradGrad

 Leave Link  103 at Thu Apr 14 14:27:58 2016, MaxMem=    33554432 cpu:         0.0
 (Enter /usr/local/gau/g09/l202.exe)
                          Input orientation:                          
 ---------------------------------------------------------------------
 Center     Atomic      Atomic             Coordinates (Angstroms)
 Number     Number       Type             X           Y           Z
 ---------------------------------------------------------------------
      1          7           0       -1.415151   -1.086156   -0.442365
      2          1           0       -1.192406   -1.658501    0.366399
      3          6           0       -0.654033    0.157924   -0.409981
      4          1           0       -0.643160   -0.083330    0.733506
      5          6           0       -1.197946    1.240022    0.551056
      6          6           0        0.775088   -0.168707   -0.010554
      7          1           0       -1.207825    0.870425    1.580108
      8          1           0       -0.597288    2.152211    0.507920
      9          1           0       -2.222529    1.495513    0.268083
     10          8           0        1.107609   -1.098412    0.680733
     11          1           0       -2.412134   -0.903080   -0.445618
     12          8           0        1.653842    0.746790   -0.480741
     13          1           0        2.529992    0.504102   -0.144397
 ---------------------------------------------------------------------
                    Distance matrix (angstroms):
                    1          2          3          4          5
     1  N    0.000000
     2  H    1.015526   0.000000
     3  C    1.458796   2.047440   0.000000
     4  H    1.727513   1.708099   1.168710   0.000000
     5  C    2.538733   2.904404   1.546082   1.446490   0.000000
     6  C    2.413570   2.496520   1.519413   1.603852   2.488531
     7  H    2.821629   2.805137   2.185131   1.394715   1.093457
     8  H    3.472602   3.859497   2.196120   2.247362   1.093041
     9  H    2.796714   3.319431   2.170045   2.281177   1.093215
    10  O    2.761488   2.388006   2.423101   2.024443   3.286438
    11  H    1.013658   1.648566   2.053757   2.278506   2.657160
    12  O    3.574896   3.821544   2.382867   2.727584   3.072552
    13  H    4.264019   4.335206   3.213781   3.344351   3.862998
                    6          7          8          9         10
     6  C    0.000000
     7  H    2.746260   0.000000
     8  H    2.745704   1.779134   0.000000
     9  H    3.439909   1.772504   1.769232   0.000000
    10  O    1.205321   3.169610   3.674655   4.241291   0.000000
    11  H    3.299541   2.949448   3.679362   2.509695   3.700731
    12  O    1.353299   3.528671   2.832004   4.018405   2.247702
    13  H    1.884217   4.132721   3.594671   4.872319   2.296098
                   11         12         13
    11  H    0.000000
    12  O    4.388105   0.000000
    13  H    5.147378   0.969362   0.000000
 Stoichiometry    C3H7NO2
 Framework group  C1[X(C3H7NO2)]
 Deg. of freedom    33
 Full point group                 C1      NOp   1
 Largest Abelian subgroup         C1      NOp   1
 Largest concise Abelian subgroup C1      NOp   1
                         Standard orientation:                         
 ---------------------------------------------------------------------
 Center     Atomic      Atomic             Coordinates (Angstroms)
 Number     Number       Type             X           Y           Z
 ---------------------------------------------------------------------
      1          7           0       -1.415961   -1.070884   -0.486774
      2          1           0       -1.215279   -1.623517    0.341246
      3          6           0       -0.642627    0.165979   -0.472256
      4          1           0       -0.656915   -0.044611    0.677235
      5          6           0       -1.194072    1.278827    0.448528
      6          6           0        0.774806   -0.164031   -0.035685
      7          1           0       -1.228189    0.937084    1.486649
      8          1           0       -0.583145    2.183506    0.393184
      9          1           0       -2.210119    1.536823    0.138356
     10          8           0        1.083813   -1.078123    0.686638
     11          1           0       -2.410709   -0.878045   -0.514900
     12          8           0        1.672245    0.729730   -0.512352
     13          1           0        2.538975    0.487441   -0.152157
 ---------------------------------------------------------------------
 Rotational constants (GHZ):      5.1342696      3.0659651      2.3307433
 Leave Link  202 at Thu Apr 14 14:27:58 2016, MaxMem=    33554432 cpu:         0.0
 (Enter /usr/local/gau/g09/l301.exe)
 Standard basis: 6-31G (6D, 7F)
 Ernie: Thresh=  0.10000D-02 Tol=  0.10000D-05 Strict=F.
 There are    68 symmetry adapted cartesian basis functions of A   symmetry.
 There are    68 symmetry adapted basis functions of A   symmetry.
    68 basis functions,   160 primitive gaussians,    68 cartesian basis functions
    24 alpha electrons       24 beta electrons
       nuclear repulsion energy       251.5856794757 Hartrees.
 IExCor=  402 DFT=T Ex+Corr=B3LYP ExCW=0 ScaHFX=  0.200000
 ScaDFX=  0.800000  0.720000  1.000000  0.810000 ScalE2=  1.000000  1.000000
 IRadAn=      0 IRanWt=     -1 IRanGd=            0 ICorTp=0 IEmpDi=  4
 NAtoms=   13 NActive=   13 NUniq=   13 SFac= 1.00D+00 NAtFMM=   60 NAOKFM=F Big=F
 Integral buffers will be    131072 words long.
 Raffenetti 2 integral format.
 Two-electron integral symmetry is turned on.
 Leave Link  301 at Thu Apr 14 14:27:58 2016, MaxMem=    33554432 cpu:         0.0
 (Enter /usr/local/gau/g09/l302.exe)
 NPDir=0 NMtPBC=     1 NCelOv=     1 NCel=       1 NClECP=     1 NCelD=      1
         NCelK=      1 NCelE2=     1 NClLst=     1 CellRange=     0.0.
 One-electron integrals computed using PRISM.
 NBasis=    68 RedAO= T EigKep=  3.65D-03  NBF=    68
 NBsUse=    68 1.00D-06 EigRej= -1.00D+00 NBFU=    68
 Precomputing XC quadrature grid using
 IXCGrd= 4 IRadAn=           0 IRanWt=          -1 IRanGd=           0 AccXCQ= 0.00D+00.
 Generated NRdTot=       0 NPtTot=           0 NUsed=           0 NTot=          32
 NSgBfM=    68    68    68    68    68 MxSgAt=    13 MxSgA2=    13.
 Leave Link  302 at Thu Apr 14 14:27:58 2016, MaxMem=    33554432 cpu:         0.2
 (Enter /usr/local/gau/g09/l303.exe)
 DipDrv:  MaxL=1.
 Leave Link  303 at Thu Apr 14 14:27:58 2016, MaxMem=    33554432 cpu:         0.0
 (Enter /usr/local/gau/g09/l401.exe)
 ExpMin= 1.61D-01 ExpMax= 5.48D+03 ExpMxC= 8.25D+02 IAcc=1 IRadAn=         1 AccDes= 0.00D+00
 Harris functional with IExCor=  402 and IRadAn=       1 diagonalized for initial guess.
 HarFok:  IExCor=  402 AccDes= 0.00D+00 IRadAn=         1 IDoV= 1 UseB2=F ITyADJ=14
 ICtDFT=  3500011 ScaDFX=  1.000000  1.000000  1.000000  1.000000
 FoFCou: FMM=F IPFlag=           0 FMFlag=      100000 FMFlg1=           0
         NFxFlg=           0 DoJE=T BraDBF=F KetDBF=T FulRan=T
         wScrn=  0.000000 ICntrl=     500 IOpCl=  0 I1Cent=   200000004 NGrid=           0
         NMat0=    1 NMatS0=      1 NMatT0=    0 NMatD0=    1 NMtDS0=    0 NMtDT0=    0
 Petite list used in FoFCou.
 Harris En= -323.477728651084    
 JPrj=0 DoOrth=F DoCkMO=F.
 Leave Link  401 at Thu Apr 14 14:27:59 2016, MaxMem=    33554432 cpu:         0.5
 (Enter /usr/local/gau/g09/l502.exe)
 Closed shell SCF:
 Using DIIS extrapolation, IDIIS=  1040.
 Integral symmetry usage will be decided dynamically.
 Keep R1 ints in memory in canonical form, NReq=3676491.
 IVT=       33364 IEndB=       33364 NGot=    33554432 MDV=    30768038
 LenX=    30768038 LenY=    30762973
 Requested convergence on RMS density matrix=1.00D-08 within 128 cycles.
 Requested convergence on MAX density matrix=1.00D-06.
 Requested convergence on             energy=1.00D-06.
 No special actions if energy rises.
 FoFCou: FMM=F IPFlag=           0 FMFlag=           0 FMFlg1=           0
         NFxFlg=           0 DoJE=F BraDBF=F KetDBF=F FulRan=T
         wScrn=  0.000000 ICntrl=     600 IOpCl=  0 I1Cent=           0 NGrid=           0
         NMat0=    1 NMatS0=   2346 NMatT0=    0 NMatD0=    1 NMtDS0=    0 NMtDT0=    0
 Symmetry not used in FoFCou.
 Integral accuracy reduced to 1.0D-05 until final iterations.

 Cycle   1  Pass 0  IDiag  1:
 E= -323.201889878653    
 DIIS: error= 4.85D-02 at cycle   1 NSaved=   1.
 NSaved= 1 IEnMin= 1 EnMin= -323.201889878653     IErMin= 1 ErrMin= 4.85D-02
 ErrMax= 4.85D-02  0.00D+00 EMaxC= 1.00D-01 BMatC= 2.39D-01 BMatP= 2.39D-01
 IDIUse=3 WtCom= 5.15D-01 WtEn= 4.85D-01
 Coeff-Com:  0.100D+01
 Coeff-En:   0.100D+01
 Coeff:      0.100D+01
 Gap=     0.129 Goal=   None    Shift=    0.000
 GapD=    0.129 DampG=1.000 DampE=0.500 DampFc=0.5000 IDamp=-1.
 Damping current iteration by 5.00D-01
 RMSDP=2.03D-02 MaxDP=2.50D-01              OVMax= 1.98D-01

 Cycle   2  Pass 0  IDiag  1:
 E= -323.270787916328     Delta-E=       -0.068898037675 Rises=F Damp=T
 DIIS: error= 1.51D-02 at cycle   2 NSaved=   2.
 NSaved= 2 IEnMin= 2 EnMin= -323.270787916328     IErMin= 2 ErrMin= 1.51D-02
 ErrMax= 1.51D-02  0.00D+00 EMaxC= 1.00D-01 BMatC= 2.36D-02 BMatP= 2.39D-01
 IDIUse=3 WtCom= 8.49D-01 WtEn= 1.51D-01
 Coeff-Com:  0.203D+00 0.797D+00
 Coeff-En:   0.314D+00 0.686D+00
 Coeff:      0.220D+00 0.780D+00
 Gap=     0.202 Goal=   None    Shift=    0.000
 RMSDP=4.03D-03 MaxDP=4.46D-02 DE=-6.89D-02 OVMax= 1.19D-01

 Cycle   3  Pass 0  IDiag  1:
 E= -323.402862345756     Delta-E=       -0.132074429427 Rises=F Damp=F
 DIIS: error= 1.57D-02 at cycle   3 NSaved=   3.
 NSaved= 3 IEnMin= 3 EnMin= -323.402862345756     IErMin= 2 ErrMin= 1.51D-02
 ErrMax= 1.57D-02  0.00D+00 EMaxC= 1.00D-01 BMatC= 1.80D-02 BMatP= 2.36D-02
 IDIUse=3 WtCom= 8.43D-01 WtEn= 1.57D-01
 Coeff-Com:  0.111D+00 0.491D+00 0.398D+00
 Coeff-En:   0.000D+00 0.000D+00 0.100D+01
 Coeff:      0.937D-01 0.414D+00 0.492D+00
 Gap=     0.199 Goal=   None    Shift=    0.000
 RMSDP=3.07D-03 MaxDP=3.34D-02 DE=-1.32D-01 OVMax= 5.93D-02

 Cycle   4  Pass 0  IDiag  1:
 E= -323.414252987313     Delta-E=       -0.011390641557 Rises=F Damp=F
 DIIS: error= 9.71D-03 at cycle   4 NSaved=   4.
 NSaved= 4 IEnMin= 4 EnMin= -323.414252987313     IErMin= 4 ErrMin= 9.71D-03
 ErrMax= 9.71D-03  0.00D+00 EMaxC= 1.00D-01 BMatC= 5.50D-03 BMatP= 1.80D-02
 IDIUse=3 WtCom= 9.03D-01 WtEn= 9.71D-02
 Coeff-Com:  0.349D-01 0.123D+00 0.344D+00 0.498D+00
 Coeff-En:   0.000D+00 0.000D+00 0.262D+00 0.738D+00
 Coeff:      0.315D-01 0.111D+00 0.336D+00 0.522D+00
 Gap=     0.192 Goal=   None    Shift=    0.000
 RMSDP=1.21D-03 MaxDP=1.32D-02 DE=-1.14D-02 OVMax= 2.53D-02

 Cycle   5  Pass 0  IDiag  1:
 E= -323.418432281219     Delta-E=       -0.004179293906 Rises=F Damp=F
 DIIS: error= 1.63D-03 at cycle   5 NSaved=   5.
 NSaved= 5 IEnMin= 5 EnMin= -323.418432281219     IErMin= 5 ErrMin= 1.63D-03
 ErrMax= 1.63D-03  0.00D+00 EMaxC= 1.00D-01 BMatC= 2.39D-04 BMatP= 5.50D-03
 IDIUse=3 WtCom= 9.84D-01 WtEn= 1.63D-02
 Coeff-Com:  0.504D-02 0.104D-02 0.134D+00 0.301D+00 0.560D+00
 Coeff-En:   0.000D+00 0.000D+00 0.000D+00 0.000D+00 0.100D+01
 Coeff:      0.496D-02 0.102D-02 0.132D+00 0.296D+00 0.567D+00
 Gap=     0.195 Goal=   None    Shift=    0.000
 RMSDP=2.39D-04 MaxDP=2.41D-03 DE=-4.18D-03 OVMax= 4.12D-03

 Cycle   6  Pass 0  IDiag  1:
 E= -323.418649547272     Delta-E=       -0.000217266053 Rises=F Damp=F
 DIIS: error= 2.12D-04 at cycle   6 NSaved=   6.
 NSaved= 6 IEnMin= 6 EnMin= -323.418649547272     IErMin= 6 ErrMin= 2.12D-04
 ErrMax= 2.12D-04  0.00D+00 EMaxC= 1.00D-01 BMatC= 4.81D-06 BMatP= 2.39D-04
 IDIUse=3 WtCom= 9.98D-01 WtEn= 2.12D-03
 Coeff-Com:  0.138D-02-0.324D-02 0.446D-01 0.102D+00 0.240D+00 0.616D+00
 Coeff-En:   0.000D+00 0.000D+00 0.000D+00 0.000D+00 0.000D+00 0.100D+01
 Coeff:      0.137D-02-0.324D-02 0.445D-01 0.101D+00 0.239D+00 0.617D+00
 Gap=     0.195 Goal=   None    Shift=    0.000
 RMSDP=4.49D-05 MaxDP=4.88D-04 DE=-2.17D-04 OVMax= 6.70D-04

 Cycle   7  Pass 0  IDiag  1:
 E= -323.418653735148     Delta-E=       -0.000004187876 Rises=F Damp=F
 DIIS: error= 7.56D-05 at cycle   7 NSaved=   7.
 NSaved= 7 IEnMin= 7 EnMin= -323.418653735148     IErMin= 7 ErrMin= 7.56D-05
 ErrMax= 7.56D-05  0.00D+00 EMaxC= 1.00D-01 BMatC= 4.62D-07 BMatP= 4.81D-06
 IDIUse=1 WtCom= 1.00D+00 WtEn= 0.00D+00
 Coeff-Com:  0.239D-03-0.157D-02 0.614D-02 0.125D-01 0.496D-01 0.293D+00
 Coeff-Com:  0.641D+00
 Coeff:      0.239D-03-0.157D-02 0.614D-02 0.125D-01 0.496D-01 0.293D+00
 Coeff:      0.641D+00
 Gap=     0.195 Goal=   None    Shift=    0.000
 RMSDP=1.38D-05 MaxDP=1.18D-04 DE=-4.19D-06 OVMax= 2.30D-04

 Cycle   8  Pass 0  IDiag  1:
 E= -323.418654150058     Delta-E=       -0.000000414911 Rises=F Damp=F
 DIIS: error= 1.49D-05 at cycle   8 NSaved=   8.
 NSaved= 8 IEnMin= 8 EnMin= -323.418654150058     IErMin= 8 ErrMin= 1.49D-05
 ErrMax= 1.49D-05  0.00D+00 EMaxC= 1.00D-01 BMatC= 2.31D-08 BMatP= 4.62D-07
 IDIUse=1 WtCom= 1.00D+00 WtEn= 0.00D+00
 Coeff-Com:  0.862D-04-0.634D-03 0.141D-02 0.218D-02 0.157D-01 0.127D+00
 Coeff-Com:  0.323D+00 0.532D+00
 Coeff:      0.862D-04-0.634D-03 0.141D-02 0.218D-02 0.157D-01 0.127D+00
 Coeff:      0.323D+00 0.532D+00
 Gap=     0.195 Goal=   None    Shift=    0.000
 RMSDP=4.10D-06 MaxDP=6.57D-05 DE=-4.15D-07 OVMax= 5.86D-05

 Initial convergence to 1.0D-05 achieved.  Increase integral accuracy.
 Cycle   9  Pass 1  IDiag  1:
 E= -323.418649588989     Delta-E=        0.000004561070 Rises=F Damp=F
 DIIS: error= 6.97D-06 at cycle   1 NSaved=   1.
 NSaved= 1 IEnMin= 1 EnMin= -323.418649588989     IErMin= 1 ErrMin= 6.97D-06
 ErrMax= 6.97D-06  0.00D+00 EMaxC= 1.00D-01 BMatC= 9.63D-09 BMatP= 9.63D-09
 IDIUse=1 WtCom= 1.00D+00 WtEn= 0.00D+00
 Coeff-Com:  0.100D+01
 Coeff:      0.100D+01
 Gap=     0.195 Goal=   None    Shift=    0.000
 RMSDP=4.10D-06 MaxDP=6.57D-05 DE= 4.56D-06 OVMax= 4.36D-05

 Cycle  10  Pass 1  IDiag  1:
 E= -323.418649599270     Delta-E=       -0.000000010281 Rises=F Damp=F
 DIIS: error= 6.55D-06 at cycle   2 NSaved=   2.
 NSaved= 2 IEnMin= 2 EnMin= -323.418649599270     IErMin= 2 ErrMin= 6.55D-06
 ErrMax= 6.55D-06  0.00D+00 EMaxC= 1.00D-01 BMatC= 5.76D-09 BMatP= 9.63D-09
 IDIUse=1 WtCom= 1.00D+00 WtEn= 0.00D+00
 Coeff-Com:  0.409D+00 0.591D+00
 Coeff:      0.409D+00 0.591D+00
 Gap=     0.195 Goal=   None    Shift=    0.000
 RMSDP=2.39D-06 MaxDP=3.50D-05 DE=-1.03D-08 OVMax= 4.04D-05

 Cycle  11  Pass 1  IDiag  1:
 E= -323.418649603036     Delta-E=       -0.000000003766 Rises=F Damp=F
 DIIS: error= 4.17D-06 at cycle   3 NSaved=   3.
 NSaved= 3 IEnMin= 3 EnMin= -323.418649603036     IErMin= 3 ErrMin= 4.17D-06
 ErrMax= 4.17D-06  0.00D+00 EMaxC= 1.00D-01 BMatC= 2.18D-09 BMatP= 5.76D-09
 IDIUse=1 WtCom= 1.00D+00 WtEn= 0.00D+00
 Coeff-Com: -0.162D-01 0.379D+00 0.638D+00
 Coeff:     -0.162D-01 0.379D+00 0.638D+00
 Gap=     0.195 Goal=   None    Shift=    0.000
 RMSDP=1.03D-06 MaxDP=1.26D-05 DE=-3.77D-09 OVMax= 1.58D-05

 Cycle  12  Pass 1  IDiag  1:
 E= -323.418649604915     Delta-E=       -0.000000001879 Rises=F Damp=F
 DIIS: error= 2.12D-06 at cycle   4 NSaved=   4.
 NSaved= 4 IEnMin= 4 EnMin= -323.418649604915     IErMin= 4 ErrMin= 2.12D-06
 ErrMax= 2.12D-06  0.00D+00 EMaxC= 1.00D-01 BMatC= 2.68D-10 BMatP= 2.18D-09
 IDIUse=1 WtCom= 1.00D+00 WtEn= 0.00D+00
 Coeff-Com: -0.186D-01 0.242D+00 0.431D+00 0.346D+00
 Coeff:     -0.186D-01 0.242D+00 0.431D+00 0.346D+00
 Gap=     0.195 Goal=   None    Shift=    0.000
 RMSDP=2.44D-07 MaxDP=3.33D-06 DE=-1.88D-09 OVMax= 5.68D-06

 Cycle  13  Pass 1  IDiag  1:
 E= -323.418649605130     Delta-E=       -0.000000000214 Rises=F Damp=F
 DIIS: error= 2.64D-07 at cycle   5 NSaved=   5.
 NSaved= 5 IEnMin= 5 EnMin= -323.418649605130     IErMin= 5 ErrMin= 2.64D-07
 ErrMax= 2.64D-07  0.00D+00 EMaxC= 1.00D-01 BMatC= 5.22D-12 BMatP= 2.68D-10
 IDIUse=1 WtCom= 1.00D+00 WtEn= 0.00D+00
 Coeff-Com: -0.811D-02 0.766D-01 0.139D+00 0.161D+00 0.631D+00
 Coeff:     -0.811D-02 0.766D-01 0.139D+00 0.161D+00 0.631D+00
 Gap=     0.195 Goal=   None    Shift=    0.000
 RMSDP=4.72D-08 MaxDP=6.60D-07 DE=-2.14D-10 OVMax= 7.24D-07

 Cycle  14  Pass 1  IDiag  1:
 E= -323.418649605132     Delta-E=       -0.000000000002 Rises=F Damp=F
 DIIS: error= 9.45D-08 at cycle   6 NSaved=   6.
 NSaved= 6 IEnMin= 6 EnMin= -323.418649605132     IErMin= 6 ErrMin= 9.45D-08
 ErrMax= 9.45D-08  0.00D+00 EMaxC= 1.00D-01 BMatC= 7.95D-13 BMatP= 5.22D-12
 IDIUse=1 WtCom= 1.00D+00 WtEn= 0.00D+00
 Coeff-Com: -0.236D-02 0.135D-01 0.261D-01 0.475D-01 0.336D+00 0.579D+00
 Coeff:     -0.236D-02 0.135D-01 0.261D-01 0.475D-01 0.336D+00 0.579D+00
 Gap=     0.195 Goal=   None    Shift=    0.000
 RMSDP=1.76D-08 MaxDP=2.18D-07 DE=-1.82D-12 OVMax= 2.36D-07

 Cycle  15  Pass 1  IDiag  1:
 E= -323.418649605132     Delta-E=        0.000000000000 Rises=F Damp=F
 DIIS: error= 2.12D-08 at cycle   7 NSaved=   7.
 NSaved= 7 IEnMin= 6 EnMin= -323.418649605132     IErMin= 7 ErrMin= 2.12D-08
 ErrMax= 2.12D-08  0.00D+00 EMaxC= 1.00D-01 BMatC= 4.33D-14 BMatP= 7.95D-13
 IDIUse=1 WtCom= 1.00D+00 WtEn= 0.00D+00
 Coeff-Com: -0.183D-03-0.133D-02-0.169D-02 0.696D-02 0.794D-01 0.248D+00
 Coeff-Com:  0.669D+00
 Coeff:     -0.183D-03-0.133D-02-0.169D-02 0.696D-02 0.794D-01 0.248D+00
 Coeff:      0.669D+00
 Gap=     0.195 Goal=   None    Shift=    0.000
 RMSDP=4.05D-09 MaxDP=5.40D-08 DE= 0.00D+00 OVMax= 4.27D-08

 SCF Done:  E(RB3LYP) =  -323.418649605     A.U. after   15 cycles
            NFock= 15  Conv=0.41D-08     -V/T= 2.0033
 KE= 3.223613822898D+02 PE=-1.260289472608D+03 EE= 3.629237612378D+02
 Leave Link  502 at Thu Apr 14 14:28:16 2016, MaxMem=    33554432 cpu:        12.0
 (Enter /usr/local/gau/g09/l601.exe)
 Copying SCF densities to generalized density rwf, IOpCl= 0 IROHF=0.

 **********************************************************************

            Population analysis using the SCF density.

 **********************************************************************

 Orbital symmetries:
       Occupied  (A) (A) (A) (A) (A) (A) (A) (A) (A) (A) (A) (A)
                 (A) (A) (A) (A) (A) (A) (A) (A) (A) (A) (A) (A)
       Virtual   (A) (A) (A) (A) (A) (A) (A) (A) (A) (A) (A) (A)
                 (A) (A) (A) (A) (A) (A) (A) (A) (A) (A) (A) (A)
                 (A) (A) (A) (A) (A) (A) (A) (A) (A) (A) (A) (A)
                 (A) (A) (A) (A) (A) (A) (A) (A)
 The electronic state is 1-A.
 Alpha  occ. eigenvalues --  -19.19721 -19.15229 -14.32486 -10.34033 -10.22501
 Alpha  occ. eigenvalues --  -10.22392  -1.14185  -1.05202  -0.95057  -0.80847
 Alpha  occ. eigenvalues --   -0.69464  -0.61536  -0.52896  -0.50677  -0.48524
 Alpha  occ. eigenvalues --   -0.47548  -0.45081  -0.43063  -0.42948  -0.38521
 Alpha  occ. eigenvalues --   -0.33018  -0.30475  -0.27815  -0.19932
 Alpha virt. eigenvalues --   -0.00427   0.01489   0.06917   0.10229   0.12398
 Alpha virt. eigenvalues --    0.13859   0.15195   0.16520   0.18274   0.23233
 Alpha virt. eigenvalues --    0.27448   0.32404   0.37394   0.50391   0.53619
 Alpha virt. eigenvalues --    0.56171   0.58117   0.59552   0.63984   0.66212
 Alpha virt. eigenvalues --    0.69695   0.73292   0.76030   0.80181   0.83418
 Alpha virt. eigenvalues --    0.84525   0.86573   0.89267   0.91064   0.93210
 Alpha virt. eigenvalues --    0.93655   0.96578   0.97354   1.01234   1.03399
 Alpha virt. eigenvalues --    1.07935   1.11671   1.15525   1.23367   1.30570
 Alpha virt. eigenvalues --    1.46803   1.76312   1.94603   2.12205
          Condensed to atoms (all electrons):
               1          2          3          4          5          6
     1  N    7.016521   0.335328   0.174838  -0.055358  -0.089100  -0.053413
     2  H    0.335328   0.511206  -0.100348  -0.045114   0.015993   0.003101
     3  C    0.174838  -0.100348   5.783851   0.314436   0.149504   0.125304
     4  H   -0.055358  -0.045114   0.314436   0.846098  -0.094937  -0.121818
     5  C   -0.089100   0.015993   0.149504  -0.094937   5.518133  -0.054407
     6  C   -0.053413   0.003101   0.125304  -0.121818  -0.054407   5.160079
     7  H    0.020374   0.007591  -0.129185  -0.103631   0.407543   0.014171
     8  H    0.005204  -0.000365  -0.012902   0.008058   0.325657  -0.005307
     9  H   -0.012041  -0.001796  -0.020154   0.010066   0.342099   0.001023
    10  O    0.008875   0.021252  -0.177370  -0.007926   0.005208   0.456825
    11  H    0.320818  -0.038969  -0.042634   0.000760  -0.002237   0.007708
    12  O    0.001257   0.000073  -0.105747   0.008478   0.001635   0.122316
    13  H   -0.000199   0.000065   0.010669  -0.002318  -0.000467  -0.015028
               7          8          9         10         11         12
     1  N    0.020374   0.005204  -0.012041   0.008875   0.320818   0.001257
     2  H    0.007591  -0.000365  -0.001796   0.021252  -0.038969   0.000073
     3  C   -0.129185  -0.012902  -0.020154  -0.177370  -0.042634  -0.105747
     4  H   -0.103631   0.008058   0.010066  -0.007926   0.000760   0.008478
     5  C    0.407543   0.325657   0.342099   0.005208  -0.002237   0.001635
     6  C    0.014171  -0.005307   0.001023   0.456825   0.007708   0.122316
     7  H    0.720022  -0.036086  -0.054981   0.005154  -0.000757  -0.000774
     8  H   -0.036086   0.519902  -0.012810  -0.000245   0.000090   0.004764
     9  H   -0.054981  -0.012810   0.566033  -0.000303   0.004522   0.000081
    10  O    0.005154  -0.000245  -0.000303   8.204342   0.000022  -0.123806
    11  H   -0.000757   0.000090   0.004522   0.000022   0.467115  -0.000075
    12  O   -0.000774   0.004764   0.000081  -0.123806  -0.000075   8.388743
    13  H    0.000243  -0.000294   0.000004   0.006618   0.000007   0.218374
              13
     1  N   -0.000199
     2  H    0.000065
     3  C    0.010669
     4  H   -0.002318
     5  C   -0.000467
     6  C   -0.015028
     7  H    0.000243
     8  H   -0.000294
     9  H    0.000004
    10  O    0.006618
    11  H    0.000007
    12  O    0.218374
    13  H    0.411547
 Mulliken charges:
               1
     1  N   -0.673103
     2  H    0.291983
     3  C    0.029738
     4  H    0.243206
     5  C   -0.524622
     6  C    0.359446
     7  H    0.150316
     8  H    0.204334
     9  H    0.178256
    10  O   -0.398645
    11  H    0.283629
    12  O   -0.515318
    13  H    0.370780
 Sum of Mulliken charges =   0.00000
 Mulliken charges with hydrogens summed into heavy atoms:
               1
     1  N   -0.097491
     3  C    0.272945
     5  C    0.008284
     6  C    0.359446
    10  O   -0.398645
    12  O   -0.144538
 Electronic spatial extent (au):  <R**2>=            573.9065
 Charge=              0.0000 electrons
 Dipole moment (field-independent basis, Debye):
    X=             -1.2500    Y=              1.9924    Z=              2.4866  Tot=              3.4228
 Quadrupole moment (field-independent basis, Debye-Ang):
   XX=            -27.5858   YY=            -40.5089   ZZ=            -40.7602
   XY=              1.2150   XZ=             -2.6174   YZ=              0.8795
 Traceless Quadrupole moment (field-independent basis, Debye-Ang):
   XX=              8.6992   YY=             -4.2240   ZZ=             -4.4752
   XY=              1.2150   XZ=             -2.6174   YZ=              0.8795
 Octapole moment (field-independent basis, Debye-Ang**2):
  XXX=             14.3571  YYY=              3.6237  ZZZ=              4.4815  XYY=             -1.9426
  XXY=              1.7925  XXZ=              0.2488  XZZ=              2.4182  YZZ=              1.0859
  YYZ=              3.9410  XYZ=              7.4544
 Hexadecapole moment (field-independent basis, Debye-Ang**3):
 XXXX=           -280.1734 YYYY=           -228.3855 ZZZZ=            -98.6907 XXXY=             21.1401
 XXXZ=              2.7527 YYYX=              4.2669 YYYZ=             -7.6362 ZZZX=             -3.3614
 ZZZY=             -4.9316 XXYY=           -104.6353 XXZZ=            -85.6602 YYZZ=            -61.0716
 XXYZ=              0.0664 YYXZ=             -6.6362 ZZXY=             -0.1964
 N-N= 2.515856794757D+02 E-N=-1.260289472776D+03  KE= 3.223613822898D+02
 No NMR shielding tensors so no spin-rotation constants.
 Leave Link  601 at Thu Apr 14 14:28:16 2016, MaxMem=    33554432 cpu:         0.1
 (Enter /usr/local/gau/g09/l701.exe)
 Compute integral first derivatives.
 ... and contract with generalized density number  0.
 Leave Link  701 at Thu Apr 14 14:28:16 2016, MaxMem=    33554432 cpu:         0.1
 (Enter /usr/local/gau/g09/l702.exe)
 L702 exits ... SP integral derivatives will be done elsewhere.
 Leave Link  702 at Thu Apr 14 14:28:16 2016, MaxMem=    33554432 cpu:         0.0
 (Enter /usr/local/gau/g09/l703.exe)
 Compute integral first derivatives, UseDBF=F ICtDFT=           0.
 Integral derivatives from FoFJK, PRISM(SPDF).
 Calling FoFJK, ICntrl=      2127 FMM=F ISym2X=0 I1Cent= 0 IOpClX= 0 NMat=1 NMatS=1 NMatT=0.
 FoFJK:  IHMeth= 1 ICntrl=    2127 DoSepK=F KAlg= 0 I1Cent=   0 FoldK=F
 IRaf=         0 NMat=   1 IRICut=       1 DoRegI=T DoRafI=F ISym2E= 0.
 FoFCou: FMM=F IPFlag=           0 FMFlag=      100000 FMFlg1=         800
         NFxFlg=           0 DoJE=F BraDBF=F KetDBF=F FulRan=T
         wScrn=  0.000000 ICntrl=    2127 IOpCl=  0 I1Cent=           0 NGrid=           0
         NMat0=    1 NMatS0=      1 NMatT0=    0 NMatD0=    1 NMtDS0=    0 NMtDT0=    0
 Symmetry not used in FoFCou.
 Leave Link  703 at Thu Apr 14 14:28:20 2016, MaxMem=    33554432 cpu:         2.8
 (Enter /usr/local/gau/g09/l716.exe)
 Dipole        =-4.91802944D-01 7.83889637D-01 9.78289987D-01
 ***** Axes restored to original set *****
 -------------------------------------------------------------------
 Center     Atomic                   Forces (Hartrees/Bohr)
 Number     Number              X              Y              Z
 -------------------------------------------------------------------
      1        7          -0.032633067   -0.023828704   -0.016436975
      2        1          -0.002003965   -0.016450492   -0.003655119
      3        6           0.038840431   -0.030790221    0.065795671
      4        1           0.014466908   -0.000829733   -0.010970731
      5        6          -0.031102705    0.053238374   -0.010390108
      6        6          -0.020821257    0.042634422   -0.074190348
      7        1          -0.013235482    0.019140122    0.021144224
      8        1           0.000480552   -0.001592781    0.001278720
      9        1          -0.000536323    0.003696307    0.002878768
     10        8           0.025716816   -0.056213806    0.034059602
     11        1          -0.004018631   -0.003899420   -0.011028892
     12        8           0.007498382    0.012237113   -0.002203215
     13        1           0.017348340    0.002658819    0.003718404
 -------------------------------------------------------------------
 Cartesian Forces:  Max     0.074190348 RMS     0.026628654
 Leave Link  716 at Thu Apr 14 14:28:20 2016, MaxMem=    33554432 cpu:         0.0
 (Enter /usr/local/gau/g09/l103.exe)

 GradGradGradGradGradGradGradGradGradGradGradGradGradGradGradGradGradGrad
 Berny optimization.
 FormGI is forming the generalized inverse of G from B-inverse, IUseBI=4.
 Internal  Forces:  Max     0.077017424 RMS     0.022264572
 Search for a local minimum.
 Step number   1 out of a maximum of   64
 All quantities printed in internal units (Hartrees-Bohrs-Radians)
 RMS Force = .22265D-01 SwitMx=.10000D-02 MixMth= 1
 Mixed Optimization -- RFO/linear search
 Second derivative matrix not updated -- first step.
 ITU=  0
     Eigenvalues ---    0.00230   0.00509   0.00914   0.00947   0.02310
     Eigenvalues ---    0.04127   0.04286   0.04379   0.05405   0.05641
     Eigenvalues ---    0.07349   0.16000   0.16000   0.16000   0.16000
     Eigenvalues ---    0.16000   0.16000   0.17340   0.18387   0.24986
     Eigenvalues ---    0.25000   0.27098   0.27987   0.30423   0.34416
     Eigenvalues ---    0.34444   0.34464   0.37116   0.45060   0.45365
     Eigenvalues ---    0.53507   0.54325   1.02194
 RFO step:  Lambda=-9.50455706D-02 EMin= 2.30000000D-03
 Linear search not attempted -- first point.
 Maximum step size (   0.300) exceeded in Quadratic search.
    -- Step size scaled by   0.675
 Iteration  1 RMS(Cart)=  0.12464835 RMS(Int)=  0.00644890
 Iteration  2 RMS(Cart)=  0.00625807 RMS(Int)=  0.00233351
 Iteration  3 RMS(Cart)=  0.00002840 RMS(Int)=  0.00233342
 Iteration  4 RMS(Cart)=  0.00000005 RMS(Int)=  0.00233342
 ITry= 1 IFail=0 DXMaxC= 4.71D-01 DCOld= 1.00D+10 DXMaxT= 3.00D-01 DXLimC= 3.00D+00 Rises=F
 Variable       Old X    -DE/DX   Delta X   Delta X   Delta X     New X
                                 (Linear)    (Quad)   (Total)
    R1        1.91907   0.00593   0.00000   0.00733   0.00733   1.92640
    R2        2.75672   0.05854   0.00000   0.08473   0.08473   2.84146
    R3        1.91554   0.00328   0.00000   0.00404   0.00404   1.91957
    R4        2.20854  -0.01043   0.00000  -0.01922  -0.01922   2.18932
    R5        2.92167   0.07702   0.00000   0.13862   0.13862   3.06029
    R6        2.87127   0.01753   0.00000   0.02962   0.02962   2.90090
    R7        2.06633   0.01355   0.00000   0.02082   0.02082   2.08715
    R8        2.06555  -0.00112   0.00000  -0.00171  -0.00171   2.06384
    R9        2.06588   0.00062   0.00000   0.00095   0.00095   2.06683
   R10        2.27773   0.06998   0.00000   0.04228   0.04228   2.32001
   R11        2.55737   0.02569   0.00000   0.02716   0.02716   2.58453
   R12        1.83183   0.01630   0.00000   0.01745   0.01745   1.84928
    A1        1.92679   0.02405   0.00000   0.07224   0.07060   1.99739
    A2        1.89661  -0.00519   0.00000   0.00253  -0.00022   1.89639
    A3        1.93821   0.00650   0.00000   0.02572   0.02404   1.96225
    A4        1.42076   0.00933   0.00000   0.06008   0.05860   1.47936
    A5        2.01211   0.01566   0.00000   0.06407   0.05596   2.06807
    A6        1.88940  -0.00337   0.00000   0.03304   0.02259   1.91200
    A7        1.09232   0.02661   0.00000   0.10608   0.10272   1.19504
    A8        1.25525   0.01061   0.00000   0.04666   0.04339   1.29864
    A9        1.89436   0.03024   0.00000   0.10434   0.09855   1.99291
   A10        1.93007   0.04147   0.00000   0.11408   0.11351   2.04357
   A11        1.94576  -0.00888   0.00000  -0.02568  -0.02582   1.91994
   A12        1.90963  -0.00007   0.00000  -0.00237  -0.00316   1.90647
   A13        1.90095  -0.01503   0.00000  -0.03581  -0.03580   1.86515
   A14        1.89033  -0.01752   0.00000  -0.04187  -0.04296   1.84737
   A15        1.88575  -0.00134   0.00000  -0.01205  -0.01234   1.87341
   A16        2.18471   0.00348   0.00000   0.00675   0.00674   2.19145
   A17        1.95411   0.00665   0.00000   0.01294   0.01294   1.96704
   A18        2.14353  -0.01016   0.00000  -0.01993  -0.01993   2.12359
   A19        1.87233   0.01331   0.00000   0.03522   0.03522   1.90755
    D1       -0.42192  -0.00117   0.00000  -0.00409  -0.00427  -0.42618
    D2       -1.36609  -0.03198   0.00000  -0.14186  -0.14266  -1.50875
    D3        0.75870   0.01536   0.00000   0.06227   0.06124   0.81994
    D4        1.68294   0.01263   0.00000   0.06424   0.06540   1.74834
    D5        0.73876  -0.01818   0.00000  -0.07354  -0.07299   0.66577
    D6        2.86355   0.02916   0.00000   0.13060   0.13091   2.99446
    D7        1.04853   0.01568   0.00000   0.08551   0.08787   1.13640
    D8       -3.11704   0.01913   0.00000   0.10119   0.10319  -3.01385
    D9       -1.03222   0.01185   0.00000   0.06856   0.07045  -0.96178
   D10       -0.07640  -0.00505   0.00000  -0.02706  -0.02613  -0.10254
   D11        2.04121  -0.00160   0.00000  -0.01138  -0.01081   2.03040
   D12       -2.15715  -0.00888   0.00000  -0.04401  -0.04356  -2.20071
   D13       -1.07359  -0.01364   0.00000  -0.08067  -0.08313  -1.15672
   D14        1.04402  -0.01019   0.00000  -0.06499  -0.06781   0.97622
   D15        3.12885  -0.01747   0.00000  -0.09763  -0.10055   3.02829
   D16       -0.49906  -0.01386   0.00000  -0.05382  -0.05505  -0.55411
   D17        2.68582  -0.01277   0.00000  -0.04719  -0.04840   2.63742
   D18        0.79497   0.00285   0.00000   0.02060   0.02067   0.81564
   D19       -2.30334   0.00394   0.00000   0.02723   0.02732  -2.27602
   D20        1.69661   0.02294   0.00000   0.11470   0.11584   1.81244
   D21       -1.40170   0.02403   0.00000   0.12133   0.12249  -1.27921
   D22        3.08349  -0.00193   0.00000  -0.01196  -0.01193   3.07156
   D23       -0.01601  -0.00126   0.00000  -0.00626  -0.00630  -0.02231
         Item               Value     Threshold  Converged?
 Maximum Force            0.077017     0.000450     NO 
 RMS     Force            0.022265     0.000300     NO 
 Maximum Displacement     0.471059     0.001800     NO 
 RMS     Displacement     0.123685     0.001200     NO 
 Predicted change in Energy=-5.322678D-02
 Lowest energy point so far.  Saving SCF results.
 GradGradGradGradGradGradGradGradGradGradGradGradGradGradGradGradGradGrad

 Leave Link  103 at Thu Apr 14 14:28:20 2016, MaxMem=    33554432 cpu:         0.0
 (Enter /usr/local/gau/g09/l202.exe)
                          Input orientation:                          
 ---------------------------------------------------------------------
 Center     Atomic      Atomic             Coordinates (Angstroms)
 Number     Number       Type             X           Y           Z
 ---------------------------------------------------------------------
      1          7           0       -1.428957   -1.139038   -0.454683
      2          1           0       -1.258996   -1.824701    0.280279
      3          6           0       -0.638575    0.132378   -0.314279
      4          1           0       -0.603093   -0.139097    0.811444
      5          6           0       -1.244513    1.321371    0.603166
      6          6           0        0.829160   -0.205351   -0.017317
      7          1           0       -1.347659    1.119699    1.684161
      8          1           0       -0.629872    2.218832    0.505511
      9          1           0       -2.248201    1.573610    0.249316
     10          8           0        1.223750   -1.183916    0.610331
     11          1           0       -2.428592   -0.969215   -0.515754
     12          8           0        1.694102    0.748036   -0.479333
     13          1           0        2.605506    0.516196   -0.208692
 ---------------------------------------------------------------------
                    Distance matrix (angstroms):
                    1          2          3          4          5
     1  N    0.000000
     2  H    1.019406   0.000000
     3  C    1.503635   2.137423   0.000000
     4  H    1.812460   1.885101   1.158538   0.000000
     5  C    2.684525   3.162630   1.619435   1.608653   0.000000
     6  C    2.482369   2.659183   1.535088   1.656076   2.648774
     7  H    3.111777   3.263163   2.339095   1.703109   1.104473
     8  H    3.582709   4.098376   2.241745   2.377844   1.092134
     9  H    2.919800   3.539491   2.232865   2.440437   1.093720
    10  O    2.858868   2.585260   2.460851   2.114107   3.516936
    11  H    1.015795   1.653323   2.111459   2.404786   2.810838
    12  O    3.648994   3.989583   2.418194   2.780327   3.183705
    13  H    4.367746   4.544587   3.268413   3.430043   4.016226
                    6          7          8          9         10
     6  C    0.000000
     7  H    3.064201   0.000000
     8  H    2.877288   1.764236   0.000000
     9  H    3.564541   1.753793   1.760948   0.000000
    10  O    1.227694   3.615508   3.876286   4.448452   0.000000
    11  H    3.383028   3.220497   3.800266   2.661547   3.828024
    12  O    1.367673   3.751153   2.921303   4.093197   2.267385
    13  H    1.926826   4.424322   3.725147   4.988624   2.338895
                   11         12         13
    11  H    0.000000
    12  O    4.466193   0.000000
    13  H    5.257649   0.978597   0.000000
 Stoichiometry    C3H7NO2
 Framework group  C1[X(C3H7NO2)]
 Deg. of freedom    33
 Full point group                 C1      NOp   1
 RotChk:  IX=0 Diff= 1.12D-01
 Largest Abelian subgroup         C1      NOp   1
 Largest concise Abelian subgroup C1      NOp   1
                         Standard orientation:                         
 ---------------------------------------------------------------------
 Center     Atomic      Atomic             Coordinates (Angstroms)
 Number     Number       Type             X           Y           Z
 ---------------------------------------------------------------------
      1          7           0       -1.375526   -1.215930   -0.467669
      2          1           0       -1.200238   -1.836201    0.322095
      3          6           0       -0.654523    0.101618   -0.395981
      4          1           0       -0.648721   -0.084496    0.747496
      5          6           0       -1.352732    1.321576    0.408242
      6          6           0        0.815637   -0.136910   -0.024188
      7          1           0       -1.487013    1.194522    1.497134
      8          1           0       -0.779665    2.240135    0.264704
      9          1           0       -2.353371    1.494852    0.002136
     10          8           0        1.233609   -1.045113    0.688341
     11          1           0       -2.379240   -1.103090   -0.575669
     12          8           0        1.649673    0.823647   -0.526428
     13          1           0        2.560379    0.659811   -0.207954
 ---------------------------------------------------------------------
 Rotational constants (GHZ):      4.7537947      2.9072151      2.1429206
 Leave Link  202 at Thu Apr 14 14:28:20 2016, MaxMem=    33554432 cpu:         0.0
 (Enter /usr/local/gau/g09/l301.exe)
 Standard basis: 6-31G (6D, 7F)
 Ernie: Thresh=  0.10000D-02 Tol=  0.10000D-05 Strict=F.
 There are    68 symmetry adapted cartesian basis functions of A   symmetry.
 There are    68 symmetry adapted basis functions of A   symmetry.
    68 basis functions,   160 primitive gaussians,    68 cartesian basis functions
    24 alpha electrons       24 beta electrons
       nuclear repulsion energy       244.3592148966 Hartrees.
 IExCor=  402 DFT=T Ex+Corr=B3LYP ExCW=0 ScaHFX=  0.200000
 ScaDFX=  0.800000  0.720000  1.000000  0.810000 ScalE2=  1.000000  1.000000
 IRadAn=      0 IRanWt=     -1 IRanGd=            0 ICorTp=0 IEmpDi=  4
 NAtoms=   13 NActive=   13 NUniq=   13 SFac= 1.00D+00 NAtFMM=   60 NAOKFM=F Big=F
 Integral buffers will be    131072 words long.
 Raffenetti 2 integral format.
 Two-electron integral symmetry is turned on.
 Leave Link  301 at Thu Apr 14 14:28:20 2016, MaxMem=    33554432 cpu:         0.0
 (Enter /usr/local/gau/g09/l302.exe)
 NPDir=0 NMtPBC=     1 NCelOv=     1 NCel=       1 NClECP=     1 NCelD=      1
         NCelK=      1 NCelE2=     1 NClLst=     1 CellRange=     0.0.
 One-electron integrals computed using PRISM.
 NBasis=    68 RedAO= T EigKep=  4.62D-03  NBF=    68
 NBsUse=    68 1.00D-06 EigRej= -1.00D+00 NBFU=    68
 Precomputing XC quadrature grid using
 IXCGrd= 4 IRadAn=           0 IRanWt=          -1 IRanGd=           0 AccXCQ= 0.00D+00.
 Generated NRdTot=       0 NPtTot=           0 NUsed=           0 NTot=          32
 NSgBfM=    68    68    68    68    68 MxSgAt=    13 MxSgA2=    13.
 Leave Link  302 at Thu Apr 14 14:28:20 2016, MaxMem=    33554432 cpu:         0.2
 (Enter /usr/local/gau/g09/l303.exe)
 DipDrv:  MaxL=1.
 Leave Link  303 at Thu Apr 14 14:28:20 2016, MaxMem=    33554432 cpu:         0.0
 (Enter /usr/local/gau/g09/l401.exe)
 Initial guess from the checkpoint file:  "Ala-S-opt-freq-pb1-6-31g.chk"
 B after Tr=     0.000000    0.000000    0.000000
         Rot=    0.999401    0.015944    0.000747   -0.030694 Ang=   3.97 deg.
 Guess basis will be translated and rotated to current coordinates.
 JPrj=2 DoOrth=T DoCkMO=T.
 Generating alternative initial guess.
 ExpMin= 1.61D-01 ExpMax= 5.48D+03 ExpMxC= 8.25D+02 IAcc=1 IRadAn=         1 AccDes= 0.00D+00
 Harris functional with IExCor=  402 and IRadAn=       1 diagonalized for initial guess.
 HarFok:  IExCor=  402 AccDes= 0.00D+00 IRadAn=         1 IDoV= 1 UseB2=F ITyADJ=14
 ICtDFT=  3500011 ScaDFX=  1.000000  1.000000  1.000000  1.000000
 FoFCou: FMM=F IPFlag=           0 FMFlag=      100000 FMFlg1=           0
         NFxFlg=           0 DoJE=T BraDBF=F KetDBF=T FulRan=T
         wScrn=  0.000000 ICntrl=     500 IOpCl=  0 I1Cent=   200000004 NGrid=           0
         NMat0=    1 NMatS0=      1 NMatT0=    0 NMatD0=    1 NMtDS0=    0 NMtDT0=    0
 Petite list used in FoFCou.
 Harris En= -323.518465972711    
 Leave Link  401 at Thu Apr 14 14:28:21 2016, MaxMem=    33554432 cpu:         0.5
 (Enter /usr/local/gau/g09/l502.exe)
 Closed shell SCF:
 Using DIIS extrapolation, IDIIS=  1040.
 Integral symmetry usage will be decided dynamically.
 Keep R1 ints in memory in canonical form, NReq=3676491.
 IVT=       33364 IEndB=       33364 NGot=    33554432 MDV=    30768038
 LenX=    30768038 LenY=    30762973
 Requested convergence on RMS density matrix=1.00D-08 within 128 cycles.
 Requested convergence on MAX density matrix=1.00D-06.
 Requested convergence on             energy=1.00D-06.
 No special actions if energy rises.
 FoFCou: FMM=F IPFlag=           0 FMFlag=           0 FMFlg1=           0
         NFxFlg=           0 DoJE=F BraDBF=F KetDBF=F FulRan=T
         wScrn=  0.000000 ICntrl=     600 IOpCl=  0 I1Cent=           0 NGrid=           0
         NMat0=    1 NMatS0=   2346 NMatT0=    0 NMatD0=    1 NMtDS0=    0 NMtDT0=    0
 Symmetry not used in FoFCou.
 Integral accuracy reduced to 1.0D-05 until final iterations.

 Cycle   1  Pass 0  IDiag  1:
 E= -323.445448040589    
 DIIS: error= 6.96D-03 at cycle   1 NSaved=   1.
 NSaved= 1 IEnMin= 1 EnMin= -323.445448040589     IErMin= 1 ErrMin= 6.96D-03
 ErrMax= 6.96D-03  0.00D+00 EMaxC= 1.00D-01 BMatC= 1.02D-02 BMatP= 1.02D-02
 IDIUse=3 WtCom= 9.30D-01 WtEn= 6.96D-02
 Coeff-Com:  0.100D+01
 Coeff-En:   0.100D+01
 Coeff:      0.100D+01
 Gap=     0.595 Goal=   None    Shift=    0.000
 GapD=    0.595 DampG=2.000 DampE=1.000 DampFc=2.0000 IDamp=-1.
 RMSDP=3.97D-03 MaxDP=3.97D-02              OVMax= 4.70D-02

 Cycle   2  Pass 0  IDiag  1:
 E= -323.463505874535     Delta-E=       -0.018057833946 Rises=F Damp=F
 DIIS: error= 3.74D-03 at cycle   2 NSaved=   2.
 NSaved= 2 IEnMin= 2 EnMin= -323.463505874535     IErMin= 2 ErrMin= 3.74D-03
 ErrMax= 3.74D-03  0.00D+00 EMaxC= 1.00D-01 BMatC= 1.91D-03 BMatP= 1.02D-02
 IDIUse=3 WtCom= 9.63D-01 WtEn= 3.74D-02
 Coeff-Com:  0.193D+00 0.807D+00
 Coeff-En:   0.000D+00 0.100D+01
 Coeff:      0.186D+00 0.814D+00
 Gap=     0.192 Goal=   None    Shift=    0.000
 RMSDP=1.74D-03 MaxDP=2.32D-02 DE=-1.81D-02 OVMax= 2.89D-02

 Cycle   3  Pass 0  IDiag  1:
 E= -323.461812842973     Delta-E=        0.001693031562 Rises=F Damp=F
 DIIS: error= 6.28D-03 at cycle   3 NSaved=   3.
 NSaved= 3 IEnMin= 2 EnMin= -323.463505874535     IErMin= 2 ErrMin= 3.74D-03
 ErrMax= 6.28D-03  0.00D+00 EMaxC= 1.00D-01 BMatC= 4.04D-03 BMatP= 1.91D-03
 IDIUse=3 WtCom= 1.12D-01 WtEn= 8.88D-01
 Coeff-Com: -0.244D-01 0.604D+00 0.420D+00
 Coeff-En:   0.000D+00 0.622D+00 0.378D+00
 Coeff:     -0.273D-02 0.620D+00 0.383D+00
 Gap=     0.197 Goal=   None    Shift=    0.000
 RMSDP=9.51D-04 MaxDP=1.12D-02 DE= 1.69D-03 OVMax= 1.65D-02

 Cycle   4  Pass 0  IDiag  1:
 E= -323.465372765068     Delta-E=       -0.003559922095 Rises=F Damp=F
 DIIS: error= 1.05D-03 at cycle   4 NSaved=   4.
 NSaved= 4 IEnMin= 4 EnMin= -323.465372765068     IErMin= 4 ErrMin= 1.05D-03
 ErrMax= 1.05D-03  0.00D+00 EMaxC= 1.00D-01 BMatC= 1.33D-04 BMatP= 1.91D-03
 IDIUse=3 WtCom= 9.90D-01 WtEn= 1.05D-02
 Coeff-Com: -0.266D-01 0.348D+00 0.234D+00 0.444D+00
 Coeff-En:   0.000D+00 0.000D+00 0.000D+00 0.100D+01
 Coeff:     -0.263D-01 0.345D+00 0.232D+00 0.450D+00
 Gap=     0.198 Goal=   None    Shift=    0.000
 RMSDP=1.96D-04 MaxDP=2.23D-03 DE=-3.56D-03 OVMax= 3.31D-03

 Cycle   5  Pass 0  IDiag  1:
 E= -323.465495568491     Delta-E=       -0.000122803423 Rises=F Damp=F
 DIIS: error= 2.41D-04 at cycle   5 NSaved=   5.
 NSaved= 5 IEnMin= 5 EnMin= -323.465495568491     IErMin= 5 ErrMin= 2.41D-04
 ErrMax= 2.41D-04  0.00D+00 EMaxC= 1.00D-01 BMatC= 4.56D-06 BMatP= 1.33D-04
 IDIUse=3 WtCom= 9.98D-01 WtEn= 2.41D-03
 Coeff-Com: -0.650D-02 0.699D-01 0.444D-01 0.189D+00 0.704D+00
 Coeff-En:   0.000D+00 0.000D+00 0.000D+00 0.000D+00 0.100D+01
 Coeff:     -0.649D-02 0.697D-01 0.443D-01 0.188D+00 0.704D+00
 Gap=     0.198 Goal=   None    Shift=    0.000
 RMSDP=5.62D-05 MaxDP=8.09D-04 DE=-1.23D-04 OVMax= 1.02D-03

 Cycle   6  Pass 0  IDiag  1:
 E= -323.465499737061     Delta-E=       -0.000004168569 Rises=F Damp=F
 DIIS: error= 6.53D-05 at cycle   6 NSaved=   6.
 NSaved= 6 IEnMin= 6 EnMin= -323.465499737061     IErMin= 6 ErrMin= 6.53D-05
 ErrMax= 6.53D-05  0.00D+00 EMaxC= 1.00D-01 BMatC= 5.92D-07 BMatP= 4.56D-06
 IDIUse=1 WtCom= 1.00D+00 WtEn= 0.00D+00
 Coeff-Com: -0.139D-02 0.107D-01 0.483D-02 0.643D-01 0.368D+00 0.554D+00
 Coeff:     -0.139D-02 0.107D-01 0.483D-02 0.643D-01 0.368D+00 0.554D+00
 Gap=     0.198 Goal=   None    Shift=    0.000
 RMSDP=1.42D-05 MaxDP=1.35D-04 DE=-4.17D-06 OVMax= 1.68D-04

 Cycle   7  Pass 0  IDiag  1:
 E= -323.465500330379     Delta-E=       -0.000000593318 Rises=F Damp=F
 DIIS: error= 2.14D-05 at cycle   7 NSaved=   7.
 NSaved= 7 IEnMin= 7 EnMin= -323.465500330379     IErMin= 7 ErrMin= 2.14D-05
 ErrMax= 2.14D-05  0.00D+00 EMaxC= 1.00D-01 BMatC= 3.58D-08 BMatP= 5.92D-07
 IDIUse=1 WtCom= 1.00D+00 WtEn= 0.00D+00
 Coeff-Com: -0.696D-04-0.178D-02-0.235D-02 0.127D-01 0.118D+00 0.255D+00
 Coeff-Com:  0.618D+00
 Coeff:     -0.696D-04-0.178D-02-0.235D-02 0.127D-01 0.118D+00 0.255D+00
 Coeff:      0.618D+00
 Gap=     0.198 Goal=   None    Shift=    0.000
 RMSDP=4.41D-06 MaxDP=6.02D-05 DE=-5.93D-07 OVMax= 4.62D-05

 Initial convergence to 1.0D-05 achieved.  Increase integral accuracy.
 Cycle   8  Pass 1  IDiag  1:
 E= -323.465486346311     Delta-E=        0.000013984068 Rises=F Damp=F
 DIIS: error= 9.69D-06 at cycle   1 NSaved=   1.
 NSaved= 1 IEnMin= 1 EnMin= -323.465486346311     IErMin= 1 ErrMin= 9.69D-06
 ErrMax= 9.69D-06  0.00D+00 EMaxC= 1.00D-01 BMatC= 1.15D-08 BMatP= 1.15D-08
 IDIUse=1 WtCom= 1.00D+00 WtEn= 0.00D+00
 Coeff-Com:  0.100D+01
 Coeff:      0.100D+01
 Gap=     0.198 Goal=   None    Shift=    0.000
 RMSDP=4.41D-06 MaxDP=6.02D-05 DE= 1.40D-05 OVMax= 5.02D-05

 Cycle   9  Pass 1  IDiag  1:
 E= -323.465486352128     Delta-E=       -0.000000005818 Rises=F Damp=F
 DIIS: error= 1.47D-05 at cycle   2 NSaved=   2.
 NSaved= 2 IEnMin= 2 EnMin= -323.465486352128     IErMin= 1 ErrMin= 9.69D-06
 ErrMax= 1.47D-05  0.00D+00 EMaxC= 1.00D-01 BMatC= 1.26D-08 BMatP= 1.15D-08
 IDIUse=1 WtCom= 1.00D+00 WtEn= 0.00D+00
 Coeff-Com:  0.515D+00 0.485D+00
 Coeff:      0.515D+00 0.485D+00
 Gap=     0.198 Goal=   None    Shift=    0.000
 RMSDP=1.70D-06 MaxDP=2.90D-05 DE=-5.82D-09 OVMax= 2.17D-05

 Cycle  10  Pass 1  IDiag  1:
 E= -323.465486361131     Delta-E=       -0.000000009003 Rises=F Damp=F
 DIIS: error= 4.03D-06 at cycle   3 NSaved=   3.
 NSaved= 3 IEnMin= 3 EnMin= -323.465486361131     IErMin= 3 ErrMin= 4.03D-06
 ErrMax= 4.03D-06  0.00D+00 EMaxC= 1.00D-01 BMatC= 9.88D-10 BMatP= 1.15D-08
 IDIUse=1 WtCom= 1.00D+00 WtEn= 0.00D+00
 Coeff-Com:  0.165D-01 0.213D+00 0.770D+00
 Coeff:      0.165D-01 0.213D+00 0.770D+00
 Gap=     0.198 Goal=   None    Shift=    0.000
 RMSDP=5.34D-07 MaxDP=7.82D-06 DE=-9.00D-09 OVMax= 1.02D-05

 Cycle  11  Pass 1  IDiag  1:
 E= -323.465486361721     Delta-E=       -0.000000000589 Rises=F Damp=F
 DIIS: error= 2.29D-06 at cycle   4 NSaved=   4.
 NSaved= 4 IEnMin= 4 EnMin= -323.465486361721     IErMin= 4 ErrMin= 2.29D-06
 ErrMax= 2.29D-06  0.00D+00 EMaxC= 1.00D-01 BMatC= 2.44D-10 BMatP= 9.88D-10
 IDIUse=1 WtCom= 1.00D+00 WtEn= 0.00D+00
 Coeff-Com: -0.166D-01 0.107D+00 0.485D+00 0.425D+00
 Coeff:     -0.166D-01 0.107D+00 0.485D+00 0.425D+00
 Gap=     0.198 Goal=   None    Shift=    0.000
 RMSDP=2.52D-07 MaxDP=3.58D-06 DE=-5.89D-10 OVMax= 5.47D-06

 Cycle  12  Pass 1  IDiag  1:
 E= -323.465486361904     Delta-E=       -0.000000000183 Rises=F Damp=F
 DIIS: error= 4.95D-07 at cycle   5 NSaved=   5.
 NSaved= 5 IEnMin= 5 EnMin= -323.465486361904     IErMin= 5 ErrMin= 4.95D-07
 ErrMax= 4.95D-07  0.00D+00 EMaxC= 1.00D-01 BMatC= 2.44D-11 BMatP= 2.44D-10
 IDIUse=1 WtCom= 1.00D+00 WtEn= 0.00D+00
 Coeff-Com: -0.128D-01 0.540D-01 0.265D+00 0.290D+00 0.405D+00
 Coeff:     -0.128D-01 0.540D-01 0.265D+00 0.290D+00 0.405D+00
 Gap=     0.198 Goal=   None    Shift=    0.000
 RMSDP=7.78D-08 MaxDP=9.05D-07 DE=-1.83D-10 OVMax= 1.28D-06

 Cycle  13  Pass 1  IDiag  1:
 E= -323.465486361924     Delta-E=       -0.000000000020 Rises=F Damp=F
 DIIS: error= 4.78D-08 at cycle   6 NSaved=   6.
 NSaved= 6 IEnMin= 6 EnMin= -323.465486361924     IErMin= 6 ErrMin= 4.78D-08
 ErrMax= 4.78D-08  0.00D+00 EMaxC= 1.00D-01 BMatC= 3.35D-13 BMatP= 2.44D-11
 IDIUse=1 WtCom= 1.00D+00 WtEn= 0.00D+00
 Coeff-Com: -0.343D-02 0.111D-01 0.569D-01 0.704D-01 0.149D+00 0.716D+00
 Coeff:     -0.343D-02 0.111D-01 0.569D-01 0.704D-01 0.149D+00 0.716D+00
 Gap=     0.198 Goal=   None    Shift=    0.000
 RMSDP=1.72D-08 MaxDP=2.04D-07 DE=-2.00D-11 OVMax= 2.69D-07

 Cycle  14  Pass 1  IDiag  1:
 E= -323.465486361928     Delta-E=       -0.000000000004 Rises=F Damp=F
 DIIS: error= 3.32D-08 at cycle   7 NSaved=   7.
 NSaved= 7 IEnMin= 7 EnMin= -323.465486361928     IErMin= 7 ErrMin= 3.32D-08
 ErrMax= 3.32D-08  0.00D+00 EMaxC= 1.00D-01 BMatC= 1.26D-13 BMatP= 3.35D-13
 IDIUse=1 WtCom= 1.00D+00 WtEn= 0.00D+00
 Coeff-Com: -0.283D-03-0.527D-03-0.127D-02 0.435D-02 0.346D-01 0.427D+00
 Coeff-Com:  0.536D+00
 Coeff:     -0.283D-03-0.527D-03-0.127D-02 0.435D-02 0.346D-01 0.427D+00
 Coeff:      0.536D+00
 Gap=     0.198 Goal=   None    Shift=    0.000
 RMSDP=8.17D-09 MaxDP=1.20D-07 DE=-3.64D-12 OVMax= 1.73D-07

 SCF Done:  E(RB3LYP) =  -323.465486362     A.U. after   14 cycles
            NFock= 14  Conv=0.82D-08     -V/T= 2.0051
 KE= 3.218296507160D+02 PE=-1.245796575783D+03 EE= 3.561422238089D+02
 Leave Link  502 at Thu Apr 14 14:28:35 2016, MaxMem=    33554432 cpu:        11.3
 (Enter /usr/local/gau/g09/l701.exe)
 Compute integral first derivatives.
 ... and contract with generalized density number  0.
 Leave Link  701 at Thu Apr 14 14:28:35 2016, MaxMem=    33554432 cpu:         0.1
 (Enter /usr/local/gau/g09/l702.exe)
 L702 exits ... SP integral derivatives will be done elsewhere.
 Leave Link  702 at Thu Apr 14 14:28:35 2016, MaxMem=    33554432 cpu:         0.0
 (Enter /usr/local/gau/g09/l703.exe)
 Compute integral first derivatives, UseDBF=F ICtDFT=           0.
 Integral derivatives from FoFJK, PRISM(SPDF).
 Calling FoFJK, ICntrl=      2127 FMM=F ISym2X=0 I1Cent= 0 IOpClX= 0 NMat=1 NMatS=1 NMatT=0.
 FoFJK:  IHMeth= 1 ICntrl=    2127 DoSepK=F KAlg= 0 I1Cent=   0 FoldK=F
 IRaf=         0 NMat=   1 IRICut=       1 DoRegI=T DoRafI=F ISym2E= 0.
 FoFCou: FMM=F IPFlag=           0 FMFlag=      100000 FMFlg1=         800
         NFxFlg=           0 DoJE=F BraDBF=F KetDBF=F FulRan=T
         wScrn=  0.000000 ICntrl=    2127 IOpCl=  0 I1Cent=           0 NGrid=           0
         NMat0=    1 NMatS0=      1 NMatT0=    0 NMatD0=    1 NMtDS0=    0 NMtDT0=    0
 Symmetry not used in FoFCou.
 Leave Link  703 at Thu Apr 14 14:28:38 2016, MaxMem=    33554432 cpu:         2.7
 (Enter /usr/local/gau/g09/l716.exe)
 Dipole        =-5.99998687D-01 7.59254140D-01 8.26567933D-01
 ***** Axes restored to original set *****
 -------------------------------------------------------------------
 Center     Atomic                   Forces (Hartrees/Bohr)
 Number     Number              X              Y              Z
 -------------------------------------------------------------------
      1        7          -0.019901199   -0.000265461   -0.019583655
      2        1           0.004339750    0.000137565   -0.003998421
      3        6           0.012236057   -0.042021634    0.106865726
      4        1           0.006525509   -0.001163275   -0.000814923
      5        6          -0.017326115    0.031795112   -0.025971293
      6        6          -0.004936672    0.023723263   -0.046941974
      7        1           0.000159301   -0.001193589   -0.002388558
      8        1           0.001529206   -0.000490154   -0.002090398
      9        1           0.000241070    0.002187453   -0.002272584
     10        8           0.008335917   -0.021393691    0.005650674
     11        1           0.000980917    0.000700500   -0.010261718
     12        8           0.002221012    0.007132999   -0.000035287
     13        1           0.005595247    0.000850913    0.001842411
 -------------------------------------------------------------------
 Cartesian Forces:  Max     0.106865726 RMS     0.022504967
 Leave Link  716 at Thu Apr 14 14:28:38 2016, MaxMem=    33554432 cpu:         0.0
 (Enter /usr/local/gau/g09/l103.exe)

 GradGradGradGradGradGradGradGradGradGradGradGradGradGradGradGradGradGrad
 Berny optimization.
 Using GEDIIS/GDIIS optimizer.
 FormGI is forming the generalized inverse of G from B-inverse, IUseBI=4.
 Internal  Forces:  Max     0.022618648 RMS     0.010232130
 Search for a local minimum.
 Step number   2 out of a maximum of   64
 All quantities printed in internal units (Hartrees-Bohrs-Radians)
 RMS Force = .10232D-01 SwitMx=.10000D-02 MixMth= 1
 Mixed Optimization -- RFO/linear search
 Update second derivatives using D2CorX and points    1    2
 DE= -4.68D-02 DEPred=-5.32D-02 R= 8.80D-01
 TightC=F SS=  1.41D+00  RLast= 4.67D-01 DXNew= 5.0454D-01 1.4011D+00
 Trust test= 8.80D-01 RLast= 4.67D-01 DXMaxT set to 5.05D-01
 ITU=  1  0
 Use linear search instead of GDIIS.
     Eigenvalues ---    0.00230   0.00511   0.00912   0.00938   0.02310
     Eigenvalues ---    0.02799   0.03601   0.04710   0.04795   0.05709
     Eigenvalues ---    0.07606   0.15948   0.16000   0.16000   0.16000
     Eigenvalues ---    0.16000   0.18522   0.19143   0.20034   0.24991
     Eigenvalues ---    0.25051   0.27115   0.30189   0.32874   0.34442
     Eigenvalues ---    0.34463   0.34894   0.43984   0.45331   0.47261
     Eigenvalues ---    0.53582   0.54241   1.00659
 RFO step:  Lambda=-7.24667804D-02 EMin= 2.30343732D-03
 Quartic linear search produced a step of  1.24088.
 Iteration  1 RMS(Cart)=  0.13910701 RMS(Int)=  0.05306084
 Iteration  2 RMS(Cart)=  0.05156920 RMS(Int)=  0.01831160
 Iteration  3 RMS(Cart)=  0.00348112 RMS(Int)=  0.01817410
 Iteration  4 RMS(Cart)=  0.00006235 RMS(Int)=  0.01817408
 Iteration  5 RMS(Cart)=  0.00000130 RMS(Int)=  0.01817408
 Iteration  6 RMS(Cart)=  0.00000004 RMS(Int)=  0.01817408
 ITry= 1 IFail=0 DXMaxC= 5.39D-01 DCOld= 1.00D+10 DXMaxT= 5.05D-01 DXLimC= 3.00D+00 Rises=F
 Variable       Old X    -DE/DX   Delta X   Delta X   Delta X     New X
                                 (Linear)    (Quad)   (Total)
    R1        1.92640  -0.00225   0.00910  -0.01692  -0.00782   1.91858
    R2        2.84146   0.01034   0.10514  -0.06394   0.04120   2.88266
    R3        1.91957  -0.00023   0.00501  -0.00586  -0.00085   1.91872
    R4        2.18932  -0.00032  -0.02385   0.02193  -0.00192   2.18740
    R5        3.06029   0.01094   0.17201  -0.11488   0.05713   3.11742
    R6        2.90090   0.00081   0.03676  -0.03274   0.00402   2.90491
    R7        2.08715  -0.00213   0.02583  -0.03504  -0.00921   2.07794
    R8        2.06384   0.00065  -0.00213   0.00490   0.00277   2.06661
    R9        2.06683   0.00102   0.00118   0.00318   0.00437   2.07120
   R10        2.32001   0.02262   0.05246  -0.01742   0.03504   2.35504
   R11        2.58453   0.00990   0.03371  -0.00560   0.02811   2.61264
   R12        1.84928   0.00552   0.02166  -0.00583   0.01583   1.86511
    A1        1.99739   0.00003   0.08761  -0.06476   0.01847   2.01586
    A2        1.89639   0.00393  -0.00027   0.06433   0.05766   1.95404
    A3        1.96225   0.00228   0.02983   0.00788   0.03329   1.99554
    A4        1.47936   0.00712   0.07271   0.09687   0.16054   1.63990
    A5        2.06807   0.00707   0.06944   0.06721   0.06327   2.13134
    A6        1.91200  -0.00095   0.02804   0.09181   0.04495   1.95695
    A7        1.19504   0.01700   0.12747   0.12840   0.22847   1.42351
    A8        1.29864   0.01099   0.05385   0.11585   0.14290   1.44155
    A9        1.99291   0.02067   0.12228   0.11240   0.17406   2.16696
   A10        2.04357  -0.00096   0.14085  -0.13745   0.00267   2.04624
   A11        1.91994  -0.00347  -0.03203   0.00024  -0.03206   1.88789
   A12        1.90647   0.00064  -0.00392   0.00889   0.00387   1.91034
   A13        1.86515   0.00258  -0.04442   0.06331   0.01890   1.88405
   A14        1.84737   0.00131  -0.05331   0.06907   0.01440   1.86177
   A15        1.87341   0.00016  -0.01532   0.00835  -0.00755   1.86586
   A16        2.19145   0.00016   0.00837  -0.00738   0.00098   2.19243
   A17        1.96704   0.00136   0.01605  -0.00831   0.00773   1.97477
   A18        2.12359  -0.00153  -0.02473   0.01583  -0.00891   2.11468
   A19        1.90755   0.00331   0.04370  -0.01627   0.02743   1.93497
    D1       -0.42618   0.00032  -0.00529   0.02186   0.01733  -0.40885
    D2       -1.50875  -0.02209  -0.17702  -0.17057  -0.34029  -1.84904
    D3        0.81994   0.01531   0.07599   0.16674   0.23045   1.05039
    D4        1.74834   0.00762   0.08116   0.06366   0.14839   1.89673
    D5        0.66577  -0.01479  -0.09057  -0.12876  -0.20923   0.45654
    D6        2.99446   0.02261   0.16244   0.20855   0.36151  -2.92722
    D7        1.13640   0.01532   0.10904   0.17057   0.28889   1.42529
    D8       -3.01385   0.01520   0.12805   0.15293   0.28976  -2.72409
    D9       -0.96178   0.01375   0.08742   0.16846   0.26465  -0.69713
   D10       -0.10254  -0.00165  -0.03243  -0.00479  -0.03227  -0.13481
   D11        2.03040  -0.00178  -0.01342  -0.02242  -0.03140   1.99900
   D12       -2.20071  -0.00322  -0.05405  -0.00689  -0.05651  -2.25722
   D13       -1.15672  -0.01393  -0.10315  -0.17144  -0.28780  -1.44451
   D14        0.97622  -0.01405  -0.08414  -0.18908  -0.28693   0.68929
   D15        3.02829  -0.01550  -0.12477  -0.17354  -0.31204   2.71625
   D16       -0.55411  -0.01011  -0.06831  -0.07423  -0.14962  -0.70374
   D17        2.63742  -0.00997  -0.06006  -0.07781  -0.14492   2.49250
   D18        0.81564   0.00281   0.02565   0.05001   0.07375   0.88939
   D19       -2.27602   0.00295   0.03390   0.04642   0.07845  -2.19757
   D20        1.81244   0.01923   0.14374   0.22475   0.37743   2.18988
   D21       -1.27921   0.01936   0.15199   0.22117   0.38213  -0.89708
   D22        3.07156  -0.00120  -0.01480  -0.01120  -0.02595   3.04561
   D23       -0.02231  -0.00112  -0.00781  -0.01391  -0.02178  -0.04408
         Item               Value     Threshold  Converged?
 Maximum Force            0.022619     0.000450     NO 
 RMS     Force            0.010232     0.000300     NO 
 Maximum Displacement     0.538898     0.001800     NO 
 RMS     Displacement     0.176556     0.001200     NO 
 Predicted change in Energy=-6.278477D-02
 Lowest energy point so far.  Saving SCF results.
 GradGradGradGradGradGradGradGradGradGradGradGradGradGradGradGradGradGrad

 Leave Link  103 at Thu Apr 14 14:28:38 2016, MaxMem=    33554432 cpu:         0.0
 (Enter /usr/local/gau/g09/l202.exe)
                          Input orientation:                          
 ---------------------------------------------------------------------
 Center     Atomic      Atomic             Coordinates (Angstroms)
 Number     Number       Type             X           Y           Z
 ---------------------------------------------------------------------
      1          7           0       -1.447874   -1.157793   -0.433085
      2          1           0       -1.366538   -1.966235    0.175664
      3          6           0       -0.615315    0.054893   -0.029106
      4          1           0       -0.551503   -0.258924    1.083237
      5          6           0       -1.293995    1.400691    0.641435
      6          6           0        0.888988   -0.259957    0.001951
      7          1           0       -1.506715    1.373041    1.719908
      8          1           0       -0.630192    2.248556    0.450501
      9          1           0       -2.243261    1.619675    0.139215
     10          8           0        1.401689   -1.311382    0.431772
     11          1           0       -2.415629   -0.945684   -0.655308
     12          8           0        1.672861    0.787981   -0.443928
     13          1           0        2.631541    0.583942   -0.328107
 ---------------------------------------------------------------------
                    Distance matrix (angstroms):
                    1          2          3          4          5
     1  N    0.000000
     2  H    1.015268   0.000000
     3  C    1.525438   2.165923   0.000000
     4  H    1.977543   2.098305   1.157523   0.000000
     5  C    2.779229   3.399764   1.649668   1.871044   0.000000
     6  C    2.540923   2.833542   1.537213   1.801165   2.816399
     7  H    3.323245   3.681726   2.364563   1.995267   1.099599
     8  H    3.612830   4.287447   2.245529   2.587277   1.093602
     9  H    2.945250   3.691711   2.264307   2.698585   1.096031
    10  O    2.981875   2.856135   2.479399   2.312365   3.829623
    11  H    1.015344   1.683042   2.152768   2.639913   2.906042
    12  O    3.677654   4.148197   2.438287   2.894138   3.218021
    13  H    4.436923   4.768838   3.303236   3.582469   4.125157
                    6          7          8          9         10
     6  C    0.000000
     7  H    3.370081   0.000000
     8  H    2.966773   1.773757   0.000000
     9  H    3.655522   1.761226   1.759085   0.000000
    10  O    1.246236   4.162239   4.099030   4.686400   0.000000
    11  H    3.438416   3.441549   3.822796   2.691105   3.985900
    12  O    1.382547   3.890267   2.870076   4.045711   2.290787
    13  H    1.964076   4.684251   3.743805   5.005480   2.383737
                   11         12         13
    11  H    0.000000
    12  O    4.445900   0.000000
    13  H    5.284008   0.986972   0.000000
 Stoichiometry    C3H7NO2
 Framework group  C1[X(C3H7NO2)]
 Deg. of freedom    33
 Full point group                 C1      NOp   1
 RotChk:  IX=0 Diff= 1.48D-01
 Largest Abelian subgroup         C1      NOp   1
 Largest concise Abelian subgroup C1      NOp   1
                         Standard orientation:                         
 ---------------------------------------------------------------------
 Center     Atomic      Atomic             Coordinates (Angstroms)
 Number     Number       Type             X           Y           Z
 ---------------------------------------------------------------------
      1          7           0       -1.282443   -1.362126   -0.455499
      2          1           0       -1.128542   -2.084580    0.241023
      3          6           0       -0.662527   -0.004217   -0.141261
      4          1           0       -0.631879   -0.192616    1.000416
      5          6           0       -1.572159    1.284625    0.341298
      6          6           0        0.865539   -0.085332    0.005216
      7          1           0       -1.853190    1.332896    1.403281
      8          1           0       -1.025154    2.199151    0.095547
      9          1           0       -2.505771    1.307741   -0.232391
     10          8           0        1.492580   -0.999951    0.573895
     11          1           0       -2.252793   -1.320672   -0.751516
     12          8           0        1.520116    1.018620   -0.508842
     13          1           0        2.487749    0.973152   -0.319808
 ---------------------------------------------------------------------
 Rotational constants (GHZ):      4.5282247      2.7986473      1.9672004
 Leave Link  202 at Thu Apr 14 14:28:38 2016, MaxMem=    33554432 cpu:         0.0
 (Enter /usr/local/gau/g09/l301.exe)
 Standard basis: 6-31G (6D, 7F)
 Ernie: Thresh=  0.10000D-02 Tol=  0.10000D-05 Strict=F.
 There are    68 symmetry adapted cartesian basis functions of A   symmetry.
 There are    68 symmetry adapted basis functions of A   symmetry.
    68 basis functions,   160 primitive gaussians,    68 cartesian basis functions
    24 alpha electrons       24 beta electrons
       nuclear repulsion energy       238.8213738054 Hartrees.
 IExCor=  402 DFT=T Ex+Corr=B3LYP ExCW=0 ScaHFX=  0.200000
 ScaDFX=  0.800000  0.720000  1.000000  0.810000 ScalE2=  1.000000  1.000000
 IRadAn=      0 IRanWt=     -1 IRanGd=            0 ICorTp=0 IEmpDi=  4
 NAtoms=   13 NActive=   13 NUniq=   13 SFac= 1.00D+00 NAtFMM=   60 NAOKFM=F Big=F
 Integral buffers will be    131072 words long.
 Raffenetti 2 integral format.
 Two-electron integral symmetry is turned on.
 Leave Link  301 at Thu Apr 14 14:28:38 2016, MaxMem=    33554432 cpu:         0.0
 (Enter /usr/local/gau/g09/l302.exe)
 NPDir=0 NMtPBC=     1 NCelOv=     1 NCel=       1 NClECP=     1 NCelD=      1
         NCelK=      1 NCelE2=     1 NClLst=     1 CellRange=     0.0.
 One-electron integrals computed using PRISM.
 NBasis=    68 RedAO= T EigKep=  5.74D-03  NBF=    68
 NBsUse=    68 1.00D-06 EigRej= -1.00D+00 NBFU=    68
 Precomputing XC quadrature grid using
 IXCGrd= 4 IRadAn=           0 IRanWt=          -1 IRanGd=           0 AccXCQ= 0.00D+00.
 Generated NRdTot=       0 NPtTot=           0 NUsed=           0 NTot=          32
 NSgBfM=    68    68    68    68    68 MxSgAt=    13 MxSgA2=    13.
 Leave Link  302 at Thu Apr 14 14:28:38 2016, MaxMem=    33554432 cpu:         0.2
 (Enter /usr/local/gau/g09/l303.exe)
 DipDrv:  MaxL=1.
 Leave Link  303 at Thu Apr 14 14:28:38 2016, MaxMem=    33554432 cpu:         0.0
 (Enter /usr/local/gau/g09/l401.exe)
 Initial guess from the checkpoint file:  "Ala-S-opt-freq-pb1-6-31g.chk"
 B after Tr=     0.000000    0.000000    0.000000
         Rot=    0.998679    0.001383   -0.004681   -0.051145 Ang=   5.89 deg.
 Guess basis will be translated and rotated to current coordinates.
 JPrj=2 DoOrth=T DoCkMO=T.
 Generating alternative initial guess.
 ExpMin= 1.61D-01 ExpMax= 5.48D+03 ExpMxC= 8.25D+02 IAcc=1 IRadAn=         1 AccDes= 0.00D+00
 Harris functional with IExCor=  402 and IRadAn=       1 diagonalized for initial guess.
 HarFok:  IExCor=  402 AccDes= 0.00D+00 IRadAn=         1 IDoV= 1 UseB2=F ITyADJ=14
 ICtDFT=  3500011 ScaDFX=  1.000000  1.000000  1.000000  1.000000
 FoFCou: FMM=F IPFlag=           0 FMFlag=      100000 FMFlg1=           0
         NFxFlg=           0 DoJE=T BraDBF=F KetDBF=T FulRan=T
         wScrn=  0.000000 ICntrl=     500 IOpCl=  0 I1Cent=   200000004 NGrid=           0
         NMat0=    1 NMatS0=      1 NMatT0=    0 NMatD0=    1 NMtDS0=    0 NMtDT0=    0
 Petite list used in FoFCou.
 Harris En= -323.582959246721    
 Leave Link  401 at Thu Apr 14 14:28:39 2016, MaxMem=    33554432 cpu:         0.6
 (Enter /usr/local/gau/g09/l502.exe)
 Closed shell SCF:
 Using DIIS extrapolation, IDIIS=  1040.
 Integral symmetry usage will be decided dynamically.
 Keep R1 ints in memory in canonical form, NReq=3676491.
 IVT=       33364 IEndB=       33364 NGot=    33554432 MDV=    30768038
 LenX=    30768038 LenY=    30762973
 Requested convergence on RMS density matrix=1.00D-08 within 128 cycles.
 Requested convergence on MAX density matrix=1.00D-06.
 Requested convergence on             energy=1.00D-06.
 No special actions if energy rises.
 FoFCou: FMM=F IPFlag=           0 FMFlag=           0 FMFlg1=           0
         NFxFlg=           0 DoJE=F BraDBF=F KetDBF=F FulRan=T
         wScrn=  0.000000 ICntrl=     600 IOpCl=  0 I1Cent=           0 NGrid=           0
         NMat0=    1 NMatS0=   2346 NMatT0=    0 NMatD0=    1 NMtDS0=    0 NMtDT0=    0
 Symmetry not used in FoFCou.
 Integral accuracy reduced to 1.0D-05 until final iterations.

 Cycle   1  Pass 0  IDiag  1:
 E= -323.465334662788    
 DIIS: error= 1.50D-02 at cycle   1 NSaved=   1.
[...]
     28  0.150951D-03 -0.145476D-03  0.518487D+00
     29  0.350394D-03 -0.119151D-03 -0.103459D+00  0.523533D-01
     30 -0.691371D-03  0.380799D-03  0.308440D+00 -0.887878D-01  0.314229D+00
     31 -0.318381D-03  0.365852D-04  0.697736D-03 -0.796090D-03  0.189093D-02
     32 -0.749509D-03  0.762996D-03 -0.323258D-03  0.201207D-03  0.341921D-03
     33 -0.111976D-02  0.783563D-04  0.386306D-03 -0.377055D-03  0.382677D-03
     34 -0.108276D-03  0.118604D-03  0.131479D-01  0.148911D-01 -0.564005D-01
     35  0.592668D-03 -0.104388D-02  0.941471D-02  0.191204D-01  0.260920D-01
     36 -0.988658D-03  0.638712D-03 -0.360207D-01  0.239706D-01 -0.702748D-01
     37 -0.690663D-04 -0.917859D-04 -0.144199D-03  0.412374D-03 -0.392309D-02
     38  0.212618D-03  0.733755D-04  0.119722D-02 -0.507894D-02 -0.260368D-02
     39 -0.297272D-03  0.107881D-03 -0.650355D-02 -0.247542D-02  0.659045D-02
               31            32            33            34            35 
     31  0.235867D-01
     32 -0.484842D-04  0.126423D+00
     33  0.440227D-01 -0.142133D+00  0.397711D+00
     34  0.352858D-03 -0.506230D-03  0.993610D-03  0.545430D+00
     35  0.419264D-03 -0.928939D-03  0.303542D-04 -0.756944D-03  0.560286D-01
     36  0.115153D-02  0.902188D-04  0.121149D-03 -0.117179D+00 -0.752622D-01
     37  0.469167D-03  0.189897D-03  0.687816D-04 -0.420150D+00 -0.799722D-02
     38 -0.214927D-03  0.360665D-04  0.710953D-04  0.498383D-02 -0.185572D-01
     39  0.851424D-03  0.932024D-04  0.518495D-03  0.772686D-01  0.900643D-02
               36            37            38            39 
     36  0.374733D+00
     37  0.128849D+00  0.425936D+00
     38  0.615853D-02  0.722763D-02  0.157076D-01
     39 -0.694443D-01 -0.128392D+00 -0.111943D-01  0.899422D-01
 FormGI is forming the generalized inverse of G from B-inverse, IUseBI=4.
 Leave Link  716 at Thu Apr 14 14:40:15 2016, MaxMem=    33554432 cpu:         0.0
 (Enter /usr/local/gau/g09/l103.exe)

 GradGradGradGradGradGradGradGradGradGradGradGradGradGradGradGradGradGrad
 Berny optimization.
 Red2BG is reusing G-inverse.
 Internal  Forces:  Max     0.000019924 RMS     0.000004990
 Search for a local minimum.
 Step number   1 out of a maximum of    2
 All quantities printed in internal units (Hartrees-Bohrs-Radians)
 Second derivative matrix not updated -- analytic derivatives used.
 ITU=  0
     Eigenvalues ---    0.00045   0.00249   0.00301   0.01516   0.02022
     Eigenvalues ---    0.04272   0.04711   0.04897   0.05082   0.05163
     Eigenvalues ---    0.05700   0.12769   0.13169   0.13673   0.14167
     Eigenvalues ---    0.14642   0.16115   0.16928   0.17358   0.21493
     Eigenvalues ---    0.23532   0.29434   0.31746   0.33936   0.34254
     Eigenvalues ---    0.34504   0.35047   0.36956   0.38112   0.46011
     Eigenvalues ---    0.46668   0.47574   0.78735
 Angle between quadratic step and forces=  82.23 degrees.
 Linear search not attempted -- first point.
 Iteration  1 RMS(Cart)=  0.00047124 RMS(Int)=  0.00000018
 Iteration  2 RMS(Cart)=  0.00000021 RMS(Int)=  0.00000000
 ITry= 1 IFail=0 DXMaxC= 2.30D-03 DCOld= 1.00D+10 DXMaxT= 3.00D-01 DXLimC= 3.00D+00 Rises=F
 Variable       Old X    -DE/DX   Delta X   Delta X   Delta X     New X
                                 (Linear)    (Quad)   (Total)
    R1        1.91473   0.00000   0.00000   0.00000   0.00000   1.91473
    R2        2.75836  -0.00001   0.00000   0.00001   0.00001   2.75837
    R3        1.91595   0.00000   0.00000   0.00000   0.00000   1.91595
    R4        2.06781   0.00000   0.00000   0.00000   0.00000   2.06781
    R5        2.91247  -0.00002   0.00000  -0.00013  -0.00013   2.91234
    R6        2.88578   0.00000   0.00000   0.00002   0.00002   2.88580
    R7        2.06552   0.00000   0.00000  -0.00001  -0.00001   2.06551
    R8        2.06951   0.00000   0.00000   0.00001   0.00001   2.06952
    R9        2.07049   0.00001   0.00000   0.00002   0.00002   2.07050
   R10        2.33089   0.00000   0.00000   0.00000   0.00000   2.33089
   R11        2.61803  -0.00002   0.00000  -0.00004  -0.00004   2.61799
   R12        1.85553   0.00000   0.00000  -0.00001  -0.00001   1.85552
    A1        2.00937   0.00000   0.00000   0.00000   0.00000   2.00938
    A2        1.96020   0.00000   0.00000   0.00005   0.00005   1.96025
    A3        1.99033  -0.00001   0.00000  -0.00003  -0.00003   1.99031
    A4        1.89223   0.00000   0.00000  -0.00007  -0.00007   1.89216
    A5        1.92163   0.00000   0.00000   0.00002   0.00002   1.92164
    A6        1.98978   0.00000   0.00000  -0.00009  -0.00009   1.98969
    A7        1.90466   0.00000   0.00000   0.00008   0.00008   1.90474
    A8        1.84099   0.00000   0.00000  -0.00008  -0.00008   1.84092
    A9        1.91146   0.00000   0.00000   0.00014   0.00014   1.91160
   A10        1.89852   0.00000   0.00000  -0.00001  -0.00001   1.89851
   A11        1.94135   0.00001   0.00000   0.00009   0.00009   1.94144
   A12        1.92639   0.00000   0.00000   0.00003   0.00003   1.92642
   A13        1.90765   0.00000   0.00000  -0.00002  -0.00002   1.90762
   A14        1.89697   0.00000   0.00000  -0.00002  -0.00002   1.89694
   A15        1.89243  -0.00001   0.00000  -0.00007  -0.00007   1.89236
   A16        2.20585   0.00000   0.00000   0.00003   0.00003   2.20588
   A17        1.95014  -0.00001   0.00000  -0.00005  -0.00005   1.95009
   A18        2.12713   0.00000   0.00000   0.00002   0.00002   2.12715
   A19        1.92417   0.00000   0.00000   0.00006   0.00006   1.92422
    D1       -0.82425   0.00000   0.00000   0.00030   0.00030  -0.82395
    D2       -2.90673   0.00000   0.00000   0.00023   0.00023  -2.90650
    D3        1.22034   0.00000   0.00000   0.00010   0.00010   1.22044
    D4       -3.12703   0.00000   0.00000   0.00025   0.00025  -3.12678
    D5        1.07367   0.00000   0.00000   0.00018   0.00018   1.07386
    D6       -1.08244   0.00000   0.00000   0.00005   0.00005  -1.08239
    D7        0.99742   0.00000   0.00000   0.00016   0.00016   0.99758
    D8        3.09945   0.00000   0.00000   0.00018   0.00018   3.09963
    D9       -1.08234   0.00000   0.00000   0.00017   0.00017  -1.08217
   D10       -1.07747   0.00000   0.00000   0.00018   0.00018  -1.07729
   D11        1.02456   0.00000   0.00000   0.00021   0.00021   1.02477
   D12        3.12595   0.00000   0.00000   0.00020   0.00020   3.12615
   D13       -3.08469   0.00000   0.00000   0.00016   0.00016  -3.08454
   D14       -0.98266   0.00000   0.00000   0.00018   0.00018  -0.98248
   D15        1.11873   0.00000   0.00000   0.00017   0.00017   1.11890
   D16       -2.32848   0.00000   0.00000   0.00115   0.00115  -2.32733
   D17        0.82540   0.00000   0.00000   0.00107   0.00107   0.82647
   D18       -0.25450   0.00000   0.00000   0.00096   0.00096  -0.25354
   D19        2.89938   0.00000   0.00000   0.00088   0.00088   2.90026
   D20        1.79310   0.00000   0.00000   0.00108   0.00108   1.79419
   D21       -1.33620   0.00000   0.00000   0.00100   0.00100  -1.33520
   D22        3.12532   0.00000   0.00000   0.00015   0.00015   3.12547
   D23       -0.00463   0.00000   0.00000   0.00008   0.00008  -0.00455
         Item               Value     Threshold  Converged?
 Maximum Force            0.000020     0.000450     YES
 RMS     Force            0.000005     0.000300     YES
 Maximum Displacement     0.002303     0.001800     NO 
 RMS     Displacement     0.000471     0.001200     YES
 Predicted change in Energy=-6.562235D-09
 GradGradGradGradGradGradGradGradGradGradGradGradGradGradGradGradGradGrad

 Leave Link  103 at Thu Apr 14 14:40:15 2016, MaxMem=    33554432 cpu:         0.0
 (Enter /usr/local/gau/g09/l9999.exe)
 1\1\GINC-KALI\Freq\RB3LYP\6-31G\C3H7N1O2\ROOT\14-Apr-2016\0\\#P Geom=A
 llCheck Guess=TCheck SCRF=Check GenChk RB3LYP/6-31G Freq\\Ala-S-opt-fr
 eq-pb1-6-31g\\0,1\N,-1.5551077593,-0.8722662925,-0.2101795251\H,-1.433
 1147713,-1.8781237866,-0.2116384027\C,-0.648869456,-0.1392390234,0.668
 4612139\H,-0.6375475319,-0.6344008251,1.6441871524\C,-1.1391478764,1.3
 11341715,0.8439015561\C,0.8037538521,-0.133409012,0.1974414968\H,-2.15
 91283996,1.2929547029,1.2363446545\H,-0.4956100565,1.866697277,1.53438
 05774\H,-1.1432742,1.8318329019,-0.1202197824\O,1.7986126483,-0.359977
 9526,0.8905004161\H,-1.6199700116,-0.4910447621,-1.1474131705\O,0.9055
 770158,0.1811639145,-1.1479272403\H,1.8478854265,0.193272573,-1.423690
 406\\Version=ES64L-G09RevD.01\State=1-A\HF=-323.6329124\RMSD=2.126e-09
 \RMSF=1.015e-05\ZeroPoint=0.1077812\Thermal=0.1147974\Dipole=-0.123569
 ,0.0470249,-0.6553348\DipoleDeriv=-0.9142723,-0.1430427,0.0482944,-0.0
 614225,-0.3292588,-0.1444879,0.0699335,-0.1475981,-0.3711018,0.3033396
 ,0.1450116,-0.060888,0.0289981,0.0253188,-0.0253811,-0.0995518,-0.0793
 053,0.1631032,0.3388023,0.1394568,0.0412435,0.1811977,0.3120754,0.1246
 565,0.0964498,0.1498179,0.2969514,0.0173853,-0.0006178,-0.0370003,-0.0
 055679,-0.0038242,0.0644445,-0.0054023,0.0519088,-0.0680895,-0.0032238
 ,0.048584,0.0325459,-0.0543794,0.0114475,-0.0129285,0.0255138,-0.02864
 03,0.0812257,1.0934317,-0.1837922,0.0564611,-0.113788,0.2129086,-0.352
 7906,-0.101449,-0.2970618,1.4386533,-0.0976945,0.032831,0.0772677,0.02
 68585,0.0530487,-0.0014889,0.0626209,0.0034644,0.068416,0.0056537,-0.0
 762025,-0.0977623,-0.0402997,-0.0081541,-0.0543571,-0.0727314,-0.07806
 56,0.0009685,0.0826755,0.0056515,0.009678,0.0099684,0.0148468,0.046534
 6,-0.0115674,0.0994253,-0.0870263,-0.9216928,0.1222016,-0.3060237,0.07
 52148,-0.3407137,0.1370922,-0.020969,0.1033941,-0.7311228,0.3715785,-0
 .0637245,0.0416125,-0.0607007,0.1436605,0.0472688,-0.0445093,0.0395423
 ,0.0635017,-0.375504,-0.0388405,0.1635186,-0.0112938,-0.485631,0.15751
 09,0.1455178,0.1661632,-1.1934717,0.0995209,0.0124836,0.0310525,0.0252
 144,0.3942754,0.0139265,-0.0438556,0.0169551,0.3379923\Polar=46.644035
 ,-0.3051379,37.2493569,1.7904957,-0.7574556,43.9843388\PG=C01 [X(C3H7N
 1O2)]\NImag=0\\0.17448085,0.02666413,0.71102011,0.15155818,-0.08480615
 ,0.59828366,-0.02072516,0.06952947,-0.02576009,0.02832268,0.02860084,-
 0.43368341,0.01529516,-0.04156448,0.45816934,-0.02241366,-0.00548840,-
 0.05766759,0.02338858,-0.00614849,0.05853568,-0.10323081,-0.05242063,-
 0.07898430,-0.00567413,0.01032275,0.00650509,0.43279873,-0.03669362,-0
 .12946999,-0.03184406,-0.02800097,-0.01289592,-0.02511874,0.00294766,0
 .48592398,-0.04608070,-0.02382612,-0.14589092,-0.00144951,0.00180252,0
 .00121061,0.01987333,-0.07498250,0.61679404,-0.00498090,0.00903533,-0.
 02552336,0.00076106,0.00005907,0.00049150,-0.04919851,-0.00196982,0.00
 103492,0.06312960,-0.00412419,0.00828370,-0.02107277,0.00061984,0.0007
 4237,0.00004531,-0.00284198,-0.10433805,0.11189912,0.00287994,0.117008
 59,-0.00657987,0.00758473,-0.02117865,0.00049986,-0.00028647,0.0000357
 8,0.00284934,0.10572560,-0.25664940,0.00144152,-0.11255603,0.28431121,
 0.00469441,-0.02704095,-0.00497462,-0.00129118,-0.00363687,-0.00428663
 ,-0.08860115,0.04164433,0.00579796,0.00027338,0.00102737,0.00045709,0.
 58148226,0.00052857,-0.03006296,-0.00568652,0.00036434,-0.00068978,-0.
 00250606,0.02271459,-0.15453401,-0.00323437,0.00654839,-0.01859730,-0.
 00315233,0.04398762,0.47166533,0.00010284,-0.03000133,-0.00281451,-0.0
 0109601,-0.00323081,-0.00347913,0.00055251,-0.00016419,-0.08112214,-0.
 00949630,0.02800779,0.00551069,0.00559337,-0.01077421,0.57987470,-0.02
 854404,-0.01213860,-0.00910214,0.00038509,-0.00001393,0.00114901,-0.14
 271348,-0.00028822,0.03703951,-0.00469250,0.00384989,-0.00025989,-0.01
 528855,0.01622490,0.00861026,0.81937285,-0.02501201,-0.00364868,-0.001
 33517,-0.00301922,0.00071650,0.00047454,0.00619511,-0.08693790,0.00031
 636,-0.01643893,-0.00008185,0.00827648,0.03575770,-0.00045861,-0.01325
 815,-0.07799035,0.24652919,-0.02541419,-0.00626214,-0.00142696,-0.0019
 2118,0.00038940,0.00088539,0.04435915,0.00450024,-0.08926820,0.0330841
 2,0.00071380,-0.01578277,0.00577970,-0.00379953,-0.00036157,0.13829407
 ,-0.09908510,0.60734162,0.00225890,-0.00163342,-0.00049809,0.00019526,
 -0.00008687,-0.00011830,-0.01281830,-0.00031727,0.00454605,0.00019253,
 -0.00002603,-0.00046432,-0.28394195,-0.00635270,0.09168150,0.00107141,
 0.00231879,-0.00101200,0.30919444,-0.00147585,0.00322765,0.00167431,0.
 00001594,0.00029179,0.00038027,0.03573565,-0.00597035,-0.01421985,-0.0
 0028006,0.00156438,0.00017209,-0.00989188,-0.04662492,0.00408236,-0.00
 179275,-0.00735418,0.00053152,0.00565330,0.05326984,-0.00068384,0.0006
 3917,-0.00010640,-0.00021568,0.00015211,0.00000318,0.00336117,0.000763
 99,-0.00069761,-0.00069150,-0.00020688,0.00034534,0.09075750,0.0032034
 7,-0.08529897,-0.00039682,-0.00020595,-0.00038629,-0.10059136,-0.00384
 467,0.08798604,0.00038082,0.00177802,-0.00021770,0.00082718,0.00047617
 ,0.00027305,0.00583565,0.00683553,0.00875394,0.00031703,-0.00070471,0.
 00000919,-0.14339775,-0.07817846,-0.09927720,-0.00015820,0.00009832,0.
 00063988,-0.01636762,-0.01555412,-0.02151013,0.15271857,0.00138464,-0.
 00757063,0.00025726,0.00000411,-0.00086022,-0.00190904,-0.02035352,-0.
 01292895,-0.01968610,-0.00053587,0.00099436,0.00057938,-0.07552052,-0.
 11470775,-0.08204511,-0.00138782,0.00023721,-0.00174579,0.00025698,-0.
 00031396,-0.00023901,0.08497633,0.12653293,0.00032454,-0.00082475,0.00
 124203,0.00004061,0.00002376,-0.00001593,-0.00199040,0.00051287,-0.002
 76631,0.00039227,-0.00005950,0.00056474,-0.09835974,-0.08366427,-0.155
 97188,-0.00087163,-0.00071379,-0.00052409,0.00817817,0.00709134,0.0082
 4957,0.10971123,0.09296236,0.16676898,-0.00014395,-0.00112319,0.000312
 69,-0.00029669,0.00001312,-0.00005309,-0.00114815,0.00732609,-0.010744
 87,-0.00007038,0.00221446,0.00057517,-0.05028471,-0.00164113,0.0013968
 4,0.00074778,0.00078588,-0.00324527,0.00101088,-0.01505011,0.02889876,
 -0.00005762,0.01001480,-0.01860739,0.05003466,0.00064158,0.00290202,0.
 00035393,-0.00015540,0.00048562,-0.00007437,0.00192980,-0.01956111,0.0
 3038117,0.00208392,-0.00513742,-0.00174877,-0.00121929,-0.10496586,0.1
 0644197,-0.00181300,-0.00024620,0.00295258,0.00046972,-0.00025419,0.00
 046811,0.00003792,0.00850432,-0.01615371,-0.00163047,0.11786666,0.0004
 7763,0.00017741,0.00169180,0.00007595,0.00008229,0.00027160,0.00037289
 ,-0.00404386,0.00269151,0.00023143,-0.00155958,0.00113883,-0.00070256,
 0.10843860,-0.25594912,0.00010783,0.00090721,-0.00079883,-0.00187680,0
 .00509085,-0.01030114,0.00154306,0.01075759,-0.01830773,-0.00014735,-0
 .11952385,0.27835732,-0.00936959,-0.00106191,0.00081149,0.00022392,0.0
 0041045,-0.00056960,-0.02475632,0.01209925,-0.02730835,0.00219568,-0.0
 0086589,-0.00056489,-0.00352461,-0.00396291,0.00006448,-0.49645654,0.0
 8381723,-0.23963240,-0.00057663,0.00190556,0.00027321,0.00026061,0.000
 67783,0.00076898,-0.00018503,0.00015095,-0.00014548,0.51848703,0.00437
 192,-0.00003630,-0.00131478,0.00049885,-0.00049272,0.00025300,0.000272
 61,0.02138662,0.00738918,0.00129964,0.00003561,-0.00164545,-0.00380445
 ,-0.00218049,0.00014590,0.08653002,-0.08707124,0.06264177,-0.00025401,
 0.00118388,0.00010584,-0.00000115,0.00022822,0.00021337,0.00003836,0.0
 0035039,-0.00011915,-0.10345921,0.05235334,0.00199893,-0.00026352,0.00
 246628,0.00004868,-0.00001395,-0.00035530,0.00004163,0.00395860,0.0076
 6606,-0.00163411,-0.00132333,0.00253698,-0.00061444,-0.00197735,-0.000
 13951,-0.25071424,0.06398554,-0.26403120,0.00017213,0.00040298,0.00022
 905,0.00005198,0.00087992,0.00031942,0.00064165,-0.00069137,0.00038080
 ,0.30844049,-0.08878778,0.31422906,-0.01280205,-0.01152739,-0.00931142
 ,-0.00263658,0.00547970,-0.00460404,-0.00895148,0.00579683,-0.02848310
 ,-0.00132676,-0.00215581,-0.00094859,0.00050115,0.00076039,0.00123023,
 0.00009800,0.00229397,-0.00632454,-0.00020209,0.00020548,0.00059057,-0
 .00038320,0.00010543,-0.00010230,0.00059656,-0.00031838,0.00003659,0.0
 0069774,-0.00079609,0.00189093,0.02358669,0.00476507,-0.12253139,0.125
 71391,0.00106492,-0.01198455,0.04054608,-0.00280676,0.00867726,-0.0210
 0164,-0.00281481,-0.00149543,-0.00314605,0.00025019,0.00250711,-0.0010
 6522,0.00025523,0.00009713,-0.00057426,0.00013736,-0.00019851,-0.00022
 228,0.00015912,-0.00005308,0.00059442,-0.00032225,-0.00074951,0.000763
 00,-0.00032326,0.00020121,0.00034192,-0.00004848,0.12642263,-0.0538188
 7,0.14249685,-0.37801737,0.00539285,-0.00836022,0.00116855,0.00590797,
 0.01191346,-0.02157531,-0.00306334,-0.00333540,-0.00081683,0.00018943,
 0.00024595,0.00046485,-0.00019930,0.00090219,-0.00018328,-0.00002374,-
 0.00025880,-0.00038393,0.00015623,-0.00007538,0.00053169,-0.00001265,-
 0.00111976,0.00007836,0.00038631,-0.00037705,0.00038268,0.04402272,-0.
 14213329,0.39771095,-0.00257278,-0.00029940,0.00179720,-0.00007596,0.0
 0002383,0.00017531,-0.00504341,-0.00887320,0.03683944,-0.00636611,-0.0
 0002860,0.00285736,-0.00080635,-0.00105101,0.00079573,-0.12374142,-0.0
 0912133,0.05207318,-0.00002560,0.00051756,0.00027150,0.00005925,0.0003
 2861,0.00038883,-0.00020764,-0.00010828,0.00011860,0.01314793,0.014891
 15,-0.05640053,0.00035286,-0.00050623,0.00099361,0.54542971,-0.0009127
 2,0.00171839,0.00241232,0.00087571,0.00035702,-0.00051193,-0.00183866,
 0.00617700,0.00313362,0.00017650,0.00079020,0.00007267,-0.00068418,-0.
 00153897,0.00145409,0.00199825,-0.06479900,0.03492077,-0.00007276,0.00
 100209,-0.00053790,0.00004384,0.00003771,0.00023369,-0.00066579,0.0005
 9267,-0.00104388,0.00941471,0.01912042,0.02609200,0.00041926,-0.000928
 94,0.00003035,-0.00075694,0.05602861,0.00208197,0.00087809,0.00224138,
 0.00083418,0.00023903,-0.00062789,0.00104828,0.00574800,-0.02354653,0.
 00210414,-0.00046444,0.00051045,0.00081227,0.00275664,-0.00086058,0.01
 559698,0.03762853,-0.21372630,0.00008872,-0.00111727,0.00025653,-0.000
 19008,0.00036300,-0.00002133,0.00082230,-0.00098866,0.00063871,-0.0360
 2070,0.02397058,-0.07027477,0.00115153,0.00009022,0.00012115,-0.117178
 85,-0.07526224,0.37473343,0.00055431,0.00023854,-0.00010784,-0.0000154
 8,-0.00008379,0.00006278,0.00350136,-0.00050659,0.00018137,-0.00023413
 ,0.00015572,0.00012802,0.00018505,0.00005742,-0.00015825,-0.01008040,0
 .00031483,0.00331949,0.00000876,0.00001128,-0.00006339,-0.00003471,0.0
 0004898,0.00012683,0.00000430,-0.00006907,-0.00009179,-0.00014420,0.00
 041237,-0.00392309,0.00046917,0.00018990,0.00006878,-0.42015049,-0.007
 99722,0.12884924,0.42593647,0.00126166,-0.00014850,0.00035257,-0.00023
 310,-0.00015604,0.00005783,0.00014336,0.00447142,0.00202862,-0.0000432
 8,0.00023084,0.00012413,-0.00086908,0.00018821,0.00040692,-0.01343362,
 0.00301763,0.00481675,-0.00009310,0.00017647,-0.00007600,0.00003318,-0
 .00010015,-0.00021579,0.00004022,0.00021262,0.00007338,0.00119722,-0.0
 0507894,-0.00260368,-0.00021493,0.00003607,0.00007110,0.00498383,-0.01
 855720,0.00615853,0.00722763,0.01570757,-0.00155295,-0.00030384,0.0011
 7726,0.00016175,0.00005566,0.00003504,-0.00389666,0.00303058,-0.006845
 82,0.00162870,-0.00008808,-0.00052636,-0.00044932,0.00014997,0.0001471
 8,0.06074636,0.00210734,-0.02173752,-0.00008195,0.00001487,0.00010463,
 0.00005655,-0.00009909,-0.00006916,0.00016321,-0.00029727,0.00010788,-
 0.00650355,-0.00247542,0.00659045,0.00085142,0.00009320,0.00051850,0.0
 7726862,0.00900643,-0.06944427,-0.12839217,-0.01119434,0.08994220\\0.0
 0000194,-0.00000151,-0.00000297,0.00000015,-0.00000162,0.00000694,0.00
 002244,-0.00002928,0.00001779,0.00000242,0.00000949,0.00000633,-0.0000
 0649,0.00003033,-0.00000672,-0.00001204,0.00001199,0.00000594,-0.00000
 206,0.00000227,0.00000433,0.00000367,-0.00000369,-0.00000199,-0.000002
 16,-0.00000771,0.00000098,0.00000568,0.00000094,-0.00000583,-0.0000075
 8,-0.00000704,0.00000252,-0.00000439,-0.00000258,-0.00002073,-0.000001
 59,-0.00000158,-0.00000660\\\@


 I CLAIM NOT TO HAVE CONTROLLED EVENTS,
 BUT CONFESS PLAINLY THAT EVENTS HAVE CONTROLLED ME.

                                         A. LINCOLN
 Job cpu time:       0 days  0 hours  1 minutes 17.0 seconds.
 File lengths (MBytes):  RWF=     13 Int=      0 D2E=      0 Chk=      2 Scr=      1
 Normal termination of Gaussian 09 at Thu Apr 14 14:40:15 2016.
