 Entering Gaussian System, Link 0=g09
 Input=Ala-S-opt-freq-tsa3-6-31g.com
 Output=Ala-S-opt-freq-tsa3-6-31g.log
 Initial command:
 /usr/local/gau/g09/l1.exe "/tmp/Gau-1935.inp" -scrdir="/tmp/"
 Entering Link 1 = /usr/local/gau/g09/l1.exe PID=      1937.
  
 Copyright (c) 1988,1990,1992,1993,1995,1998,2003,2009,2013,
            Gaussian, Inc.  All Rights Reserved.
  
 This is part of the Gaussian(R) 09 program.  It is based on
 the Gaussian(R) 03 system (copyright 2003, Gaussian, Inc.),
 the Gaussian(R) 98 system (copyright 1998, Gaussian, Inc.),
 the Gaussian(R) 94 system (copyright 1995, Gaussian, Inc.),
 the Gaussian 92(TM) system (copyright 1992, Gaussian, Inc.),
 the Gaussian 90(TM) system (copyright 1990, Gaussian, Inc.),
 the Gaussian 88(TM) system (copyright 1988, Gaussian, Inc.),
 the Gaussian 86(TM) system (copyright 1986, Carnegie Mellon
 University), and the Gaussian 82(TM) system (copyright 1983,
 Carnegie Mellon University). Gaussian is a federally registered
 trademark of Gaussian, Inc.
  
 This software contains proprietary and confidential information,
 including trade secrets, belonging to Gaussian, Inc.
  
 This software is provided under written license and may be
 used, copied, transmitted, or stored only in accord with that
 written license.
  
 The following legend is applicable only to US Government
 contracts under FAR:
  
                    RESTRICTED RIGHTS LEGEND
  
 Use, reproduction and disclosure by the US Government is
 subject to restrictions as set forth in subparagraphs (a)
 and (c) of the Commercial Computer Software - Restricted
 Rights clause in FAR 52.227-19.
  
 Gaussian, Inc.
 340 Quinnipiac St., Bldg. 40, Wallingford CT 06492
  
  
 ---------------------------------------------------------------
 Warning -- This program may not be used in any manner that
 competes with the business of Gaussian, Inc. or will provide
 assistance to any competitor of Gaussian, Inc.  The licensee
 of this program is prohibited from giving any competitor of
 Gaussian, Inc. access to this program.  By using this program,
 the user acknowledges that Gaussian, Inc. is engaged in the
 business of creating and licensing software in the field of
 computational chemistry and represents and warrants to the
 licensee that it is not a competitor of Gaussian, Inc. and that
 it will not use this program in any manner prohibited above.
 ---------------------------------------------------------------
  

 Cite this work as:
 Gaussian 09, Revision D.01,
 M. J. Frisch, G. W. Trucks, H. B. Schlegel, G. E. Scuseria, 
 M. A. Robb, J. R. Cheeseman, G. Scalmani, V. Barone, B. Mennucci, 
 G. A. Petersson, H. Nakatsuji, M. Caricato, X. Li, H. P. Hratchian, 
 A. F. Izmaylov, J. Bloino, G. Zheng, J. L. Sonnenberg, M. Hada, 
 M. Ehara, K. Toyota, R. Fukuda, J. Hasegawa, M. Ishida, T. Nakajima, 
 Y. Honda, O. Kitao, H. Nakai, T. Vreven, J. A. Montgomery, Jr., 
 J. E. Peralta, F. Ogliaro, M. Bearpark, J. J. Heyd, E. Brothers, 
 K. N. Kudin, V. N. Staroverov, T. Keith, R. Kobayashi, J. Normand, 
 K. Raghavachari, A. Rendell, J. C. Burant, S. S. Iyengar, J. Tomasi, 
 M. Cossi, N. Rega, J. M. Millam, M. Klene, J. E. Knox, J. B. Cross, 
 V. Bakken, C. Adamo, J. Jaramillo, R. Gomperts, R. E. Stratmann, 
 O. Yazyev, A. J. Austin, R. Cammi, C. Pomelli, J. W. Ochterski, 
 R. L. Martin, K. Morokuma, V. G. Zakrzewski, G. A. Voth, 
 P. Salvador, J. J. Dannenberg, S. Dapprich, A. D. Daniels, 
 O. Farkas, J. B. Foresman, J. V. Ortiz, J. Cioslowski, 
 and D. J. Fox, Gaussian, Inc., Wallingford CT, 2013.
 
 ******************************************
 Gaussian 09:  ES64L-G09RevD.01 24-Apr-2013
                13-Apr-2016 
 ******************************************
 %chk=Ala-S-opt-freq-tsa3-6-31g.chk
 ------------------------------------------------
 #p opt=(calcfc,ts) freq rb3lyp/6-31g iop(1/11=1)
 ------------------------------------------------
 1/5=1,10=4,11=1,14=-1,18=20,26=3,38=1/1,3;
 2/9=110,12=2,17=6,18=5,40=1/2;
 3/5=1,6=6,11=2,16=1,25=1,30=1,71=2,74=-5,116=1,140=1/1,2,3;
 4//1;
 5/5=2,38=5/2;
 8/6=4,10=90,11=11/1;
 11/6=1,8=1,9=11,15=111,16=1/1,2,10;
 10/6=1,13=1/2;
 6/7=2,8=2,9=2,10=2,28=1/1;
 7/10=1,18=20,25=1/1,2,3,16;
 1/5=1,10=4,11=1,14=-1,18=20,26=3/3(2);
 2/9=110/2;
 99//99;
 2/9=110/2;
 3/5=1,6=6,11=2,16=1,25=1,30=1,71=1,74=-5,116=1/1,2,3;
 4/5=5,16=3,69=1/1;
 5/5=2,38=5/2;
 7//1,2,3,16;
 1/5=1,11=1,14=-1,18=20,26=3/3(-5);
 2/9=110/2;
 6/7=2,8=2,9=2,10=2,19=2,28=1/1;
 99/9=1/99;
 Leave Link    1 at Wed Apr 13 07:57:18 2016, MaxMem=           0 cpu:         0.1
 (Enter /usr/local/gau/g09/l101.exe)
 -------------------------
 Ala-S-opt-freq-tsa3-6-31g
 -------------------------
 Symbolic Z-matrix:
 Charge =  0 Multiplicity = 1
 N                     1.08233   1.27571   0.1333 
 H                     2.07956   1.35164   0.05083 
 C                     0.46439   0.02729   0.10806 
 H                    -2.10891  -1.45482  -0.59756 
 C                     1.37242  -1.17079   0.10038 
 C                    -0.87665  -0.07921   0.10159 
 H                     2.01794  -1.17371   0.98904 
 H                     0.79115  -2.0933    0.0974 
 H                     2.02764  -1.16374  -0.78214 
 O                    -1.65341   1.13581  -0.02452 
 H                     0.51999   2.10349   0.03658 
 O                    -1.5669   -1.29474   0.20569 
 H                    -0.28976   1.02966   0.0036 
 
 NAtoms=     13 NQM=       13 NQMF=       0 NMMI=      0 NMMIF=      0
                NMic=       0 NMicF=      0.
                    Isotopes and Nuclear Properties:
 (Nuclear quadrupole moments (NQMom) in fm**2, nuclear magnetic moments (NMagM)
  in nuclear magnetons)

  Atom         1           2           3           4           5           6           7           8           9          10
 IAtWgt=          14           1          12           1          12          12           1           1           1          16
 AtmWgt=  14.0030740   1.0078250  12.0000000   1.0078250  12.0000000  12.0000000   1.0078250   1.0078250   1.0078250  15.9949146
 NucSpn=           2           1           0           1           0           0           1           1           1           0
 AtZEff=   0.0000000   0.0000000   0.0000000   0.0000000   0.0000000   0.0000000   0.0000000   0.0000000   0.0000000   0.0000000
 NQMom=    2.0440000   0.0000000   0.0000000   0.0000000   0.0000000   0.0000000   0.0000000   0.0000000   0.0000000   0.0000000
 NMagM=    0.4037610   2.7928460   0.0000000   2.7928460   0.0000000   0.0000000   2.7928460   2.7928460   2.7928460   0.0000000
 AtZNuc=   7.0000000   1.0000000   6.0000000   1.0000000   6.0000000   6.0000000   1.0000000   1.0000000   1.0000000   8.0000000

  Atom        11          12          13
 IAtWgt=           1          16           1
 AtmWgt=   1.0078250  15.9949146   1.0078250
 NucSpn=           1           0           1
 AtZEff=   0.0000000   0.0000000   0.0000000
 NQMom=    0.0000000   0.0000000   0.0000000
 NMagM=    2.7928460   0.0000000   2.7928460
 AtZNuc=   1.0000000   8.0000000   1.0000000
 Leave Link  101 at Wed Apr 13 07:57:19 2016, MaxMem=    33554432 cpu:         0.4
 (Enter /usr/local/gau/g09/l103.exe)

 GradGradGradGradGradGradGradGradGradGradGradGradGradGradGradGradGradGrad
 Berny optimization.
 Initialization pass.
                           ----------------------------
                           !    Initial Parameters    !
                           ! (Angstroms and Degrees)  !
 --------------------------                            --------------------------
 ! Name  Definition              Value          Derivative Info.                !
 --------------------------------------------------------------------------------
 ! R1    R(1,2)                  1.0035         calculate D2E/DX2 analytically  !
 ! R2    R(1,3)                  1.3932         calculate D2E/DX2 analytically  !
 ! R3    R(1,11)                 1.0054         calculate D2E/DX2 analytically  !
 ! R4    R(3,5)                  1.5033         calculate D2E/DX2 analytically  !
 ! R5    R(3,6)                  1.3453         calculate D2E/DX2 analytically  !
 ! R6    R(3,13)                 1.2587         calculate D2E/DX2 analytically  !
 ! R7    R(4,12)                 0.9822         calculate D2E/DX2 analytically  !
 ! R8    R(5,7)                  1.0984         calculate D2E/DX2 analytically  !
 ! R9    R(5,8)                  1.0904         calculate D2E/DX2 analytically  !
 ! R10   R(5,9)                  1.0992         calculate D2E/DX2 analytically  !
 ! R11   R(6,10)                 1.4476         calculate D2E/DX2 analytically  !
 ! R12   R(6,12)                 1.4017         calculate D2E/DX2 analytically  !
 ! R13   R(6,13)                 1.2584         calculate D2E/DX2 analytically  !
 ! A1    A(2,1,3)              120.4689         calculate D2E/DX2 analytically  !
 ! A2    A(2,1,11)             119.0538         calculate D2E/DX2 analytically  !
 ! A3    A(3,1,11)             119.2059         calculate D2E/DX2 analytically  !
 ! A4    A(1,3,5)              116.508          calculate D2E/DX2 analytically  !
 ! A5    A(1,3,6)              120.8748         calculate D2E/DX2 analytically  !
 ! A6    A(1,3,13)              63.4916         calculate D2E/DX2 analytically  !
 ! A7    A(5,3,6)              122.6153         calculate D2E/DX2 analytically  !
 ! A8    A(3,5,7)              110.6686         calculate D2E/DX2 analytically  !
 ! A9    A(3,5,8)              110.6273         calculate D2E/DX2 analytically  !
 ! A10   A(3,5,9)              111.0413         calculate D2E/DX2 analytically  !
 ! A11   A(7,5,8)              108.2564         calculate D2E/DX2 analytically  !
 ! A12   A(7,5,9)              107.4144         calculate D2E/DX2 analytically  !
 ! A13   A(8,5,9)              108.7238         calculate D2E/DX2 analytically  !
 ! A14   A(3,6,10)             117.9609         calculate D2E/DX2 analytically  !
 ! A15   A(3,6,12)             123.9986         calculate D2E/DX2 analytically  !
 ! A16   A(10,6,12)            118.0403         calculate D2E/DX2 analytically  !
 ! A17   A(10,6,13)             60.2563         calculate D2E/DX2 analytically  !
 ! A18   A(4,12,6)             110.6311         calculate D2E/DX2 analytically  !
 ! A19   L(5,3,13,1,-1)        179.9996         calculate D2E/DX2 analytically  !
 ! A20   L(12,6,13,10,-1)      178.2965         calculate D2E/DX2 analytically  !
 ! A21   L(5,3,13,1,-2)        174.3479         calculate D2E/DX2 analytically  !
 ! A22   L(12,6,13,10,-2)      180.1241         calculate D2E/DX2 analytically  !
 ! D1    D(2,1,3,5)              6.2762         calculate D2E/DX2 analytically  !
 ! D2    D(2,1,3,6)           -174.2135         calculate D2E/DX2 analytically  !
 ! D3    D(2,1,3,13)          -168.0718         calculate D2E/DX2 analytically  !
 ! D4    D(11,1,3,5)           173.2777         calculate D2E/DX2 analytically  !
 ! D5    D(11,1,3,6)            -7.2119         calculate D2E/DX2 analytically  !
 ! D6    D(11,1,3,13)           -1.0702         calculate D2E/DX2 analytically  !
 ! D7    D(1,3,5,7)             59.0596         calculate D2E/DX2 analytically  !
 ! D8    D(1,3,5,8)            179.0434         calculate D2E/DX2 analytically  !
 ! D9    D(1,3,5,9)            -60.1392         calculate D2E/DX2 analytically  !
 ! D10   D(6,3,5,7)           -120.4415         calculate D2E/DX2 analytically  !
 ! D11   D(6,3,5,8)             -0.4577         calculate D2E/DX2 analytically  !
 ! D12   D(6,3,5,9)            120.3597         calculate D2E/DX2 analytically  !
 ! D13   D(1,3,6,10)             6.5574         calculate D2E/DX2 analytically  !
 ! D14   D(1,3,6,12)          -173.6291         calculate D2E/DX2 analytically  !
 ! D15   D(5,3,6,10)          -173.9628         calculate D2E/DX2 analytically  !
 ! D16   D(5,3,6,12)             5.8507         calculate D2E/DX2 analytically  !
 ! D17   D(3,6,12,4)          -118.4765         calculate D2E/DX2 analytically  !
 ! D18   D(10,6,12,4)           61.3369         calculate D2E/DX2 analytically  !
 --------------------------------------------------------------------------------
 Trust Radius=3.00D-01 FncErr=1.00D-07 GrdErr=1.00D-06
 Number of steps in this run=     63 maximum allowed number of steps=    100.
 Search for a saddle point of order  1.
 GradGradGradGradGradGradGradGradGradGradGradGradGradGradGradGradGradGrad

 Leave Link  103 at Wed Apr 13 07:57:19 2016, MaxMem=    33554432 cpu:         0.0
 (Enter /usr/local/gau/g09/l202.exe)
                          Input orientation:                          
 ---------------------------------------------------------------------
 Center     Atomic      Atomic             Coordinates (Angstroms)
 Number     Number       Type             X           Y           Z
 ---------------------------------------------------------------------
      1          7           0        1.082333    1.275711    0.133298
      2          1           0        2.079563    1.351637    0.050834
      3          6           0        0.464392    0.027291    0.108064
      4          1           0       -2.108910   -1.454815   -0.597562
      5          6           0        1.372418   -1.170793    0.100384
      6          6           0       -0.876650   -0.079207    0.101587
      7          1           0        2.017935   -1.173705    0.989040
      8          1           0        0.791151   -2.093301    0.097404
      9          1           0        2.027643   -1.163743   -0.782145
     10          8           0       -1.653406    1.135812   -0.024521
     11          1           0        0.519985    2.103495    0.036576
     12          8           0       -1.566898   -1.294738    0.205693
     13          1           0       -0.289758    1.029655    0.003596
 ---------------------------------------------------------------------
                    Distance matrix (angstroms):
                    1          2          3          4          5
     1  N    0.000000
     2  H    1.003510   0.000000
     3  C    1.393212   2.089484   0.000000
     4  H    4.263093   5.083296   3.052283   0.000000
     5  C    2.463862   2.620145   1.503321   3.561944   0.000000
     6  C    2.382105   3.284674   1.345280   1.974733   2.499974
     7  H    2.758131   2.694695   2.152210   4.430257   1.098367
     8  H    3.381762   3.678284   2.145646   3.049753   1.090367
     9  H    2.771747   2.650224   2.157496   4.150887   1.099194
    10  O    2.743856   3.739962   2.394048   2.692064   3.806789
    11  H    1.005394   1.731409   2.078178   4.469317   3.384032
    12  O    3.692001   4.508210   2.425579   0.982151   2.943812
    13  H    1.400000   2.391566   1.258726   3.137403   2.759379
                    6          7          8          9         10
     6  C    0.000000
     7  H    3.219335   0.000000
     8  H    2.614986   1.773604   0.000000
     9  H    3.223681   1.771240   1.779493   0.000000
    10  O    1.447593   4.454203   4.051901   4.405914   0.000000
    11  H    2.592104   3.727074   4.205987   3.690282   2.379868
    12  O    1.401712   3.671418   2.491952   3.730108   2.442961
    13  H    1.258420   3.339363   3.306058   3.286142   1.368063
                   11         12         13
    11  H    0.000000
    12  O    3.991449   0.000000
    13  H    1.345326   2.659837   0.000000
 Stoichiometry    C3H7NO2
 Framework group  C1[X(C3H7NO2)]
 Deg. of freedom    33
 Full point group                 C1      NOp   1
 Largest Abelian subgroup         C1      NOp   1
 Largest concise Abelian subgroup C1      NOp   1
                         Standard orientation:                         
 ---------------------------------------------------------------------
 Center     Atomic      Atomic             Coordinates (Angstroms)
 Number     Number       Type             X           Y           Z
 ---------------------------------------------------------------------
      1          7           0        1.331681   -1.200062   -0.049481
      2          1           0        2.329809   -1.202792    0.054277
      3          6           0        0.620660   -0.002570   -0.010707
      4          1           0       -2.071874    1.264641    0.668162
      5          6           0        1.435067    1.259830    0.044637
      6          6           0       -0.724427    0.002670   -0.032828
      7          1           0        2.097335    1.332535   -0.828590
      8          1           0        0.785739    2.135714    0.054751
      9          1           0        2.069959    1.280890    0.941685
     10          8           0       -1.409545   -1.269955    0.048200
     11          1           0        0.831638   -2.069842    0.015758
     12          8           0       -1.502282    1.165041   -0.125731
     13          1           0       -0.057549   -1.060985    0.053954
 ---------------------------------------------------------------------
 Rotational constants (GHZ):      4.7839380      3.3644901      2.0127831
 Leave Link  202 at Wed Apr 13 07:57:19 2016, MaxMem=    33554432 cpu:         0.0
 (Enter /usr/local/gau/g09/l301.exe)
 Standard basis: 6-31G (6D, 7F)
 Ernie: Thresh=  0.10000D-02 Tol=  0.10000D-05 Strict=F.
 There are    68 symmetry adapted cartesian basis functions of A   symmetry.
 There are    68 symmetry adapted basis functions of A   symmetry.
    68 basis functions,   160 primitive gaussians,    68 cartesian basis functions
    24 alpha electrons       24 beta electrons
       nuclear repulsion energy       248.0693756168 Hartrees.
 IExCor=  402 DFT=T Ex+Corr=B3LYP ExCW=0 ScaHFX=  0.200000
 ScaDFX=  0.800000  0.720000  1.000000  0.810000 ScalE2=  1.000000  1.000000
 IRadAn=      0 IRanWt=     -1 IRanGd=            0 ICorTp=0 IEmpDi=  4
 NAtoms=   13 NActive=   13 NUniq=   13 SFac= 1.00D+00 NAtFMM=   60 NAOKFM=F Big=F
 Integral buffers will be    131072 words long.
 Raffenetti 2 integral format.
 Two-electron integral symmetry is turned on.
 Leave Link  301 at Wed Apr 13 07:57:19 2016, MaxMem=    33554432 cpu:         0.1
 (Enter /usr/local/gau/g09/l302.exe)
 NPDir=0 NMtPBC=     1 NCelOv=     1 NCel=       1 NClECP=     1 NCelD=      1
         NCelK=      1 NCelE2=     1 NClLst=     1 CellRange=     0.0.
 One-electron integrals computed using PRISM.
 NBasis=    68 RedAO= T EigKep=  2.87D-03  NBF=    68
 NBsUse=    68 1.00D-06 EigRej= -1.00D+00 NBFU=    68
 Precomputing XC quadrature grid using
 IXCGrd= 4 IRadAn=           0 IRanWt=          -1 IRanGd=           0 AccXCQ= 0.00D+00.
 Generated NRdTot=       0 NPtTot=           0 NUsed=           0 NTot=          32
 NSgBfM=    68    68    68    68    68 MxSgAt=    13 MxSgA2=    13.
 Leave Link  302 at Wed Apr 13 07:57:20 2016, MaxMem=    33554432 cpu:         0.2
 (Enter /usr/local/gau/g09/l303.exe)
 DipDrv:  MaxL=1.
 Leave Link  303 at Wed Apr 13 07:57:20 2016, MaxMem=    33554432 cpu:         0.0
 (Enter /usr/local/gau/g09/l401.exe)
 ExpMin= 1.61D-01 ExpMax= 5.48D+03 ExpMxC= 8.25D+02 IAcc=1 IRadAn=         1 AccDes= 0.00D+00
 Harris functional with IExCor=  402 and IRadAn=       1 diagonalized for initial guess.
 HarFok:  IExCor=  402 AccDes= 0.00D+00 IRadAn=         1 IDoV= 1 UseB2=F ITyADJ=14
 ICtDFT=  3500011 ScaDFX=  1.000000  1.000000  1.000000  1.000000
 FoFCou: FMM=F IPFlag=           0 FMFlag=      100000 FMFlg1=           0
         NFxFlg=           0 DoJE=T BraDBF=F KetDBF=T FulRan=T
         wScrn=  0.000000 ICntrl=     500 IOpCl=  0 I1Cent=   200000004 NGrid=           0
         NMat0=    1 NMatS0=      1 NMatT0=    0 NMatD0=    1 NMtDS0=    0 NMtDT0=    0
 Petite list used in FoFCou.
 Harris En= -323.448340984169    
 JPrj=0 DoOrth=F DoCkMO=F.
 Leave Link  401 at Wed Apr 13 07:57:23 2016, MaxMem=    33554432 cpu:         0.5
 (Enter /usr/local/gau/g09/l502.exe)
 Closed shell SCF:
 Using DIIS extrapolation, IDIIS=  1040.
 Integral symmetry usage will be decided dynamically.
 Keep R1 ints in memory in canonical form, NReq=3676491.
 IVT=       33364 IEndB=       33364 NGot=    33554432 MDV=    30768038
 LenX=    30768038 LenY=    30762973
 Requested convergence on RMS density matrix=1.00D-08 within 128 cycles.
 Requested convergence on MAX density matrix=1.00D-06.
 Requested convergence on             energy=1.00D-06.
 No special actions if energy rises.
 FoFCou: FMM=F IPFlag=           0 FMFlag=           0 FMFlg1=           0
         NFxFlg=           0 DoJE=F BraDBF=F KetDBF=F FulRan=T
         wScrn=  0.000000 ICntrl=     600 IOpCl=  0 I1Cent=           0 NGrid=           0
         NMat0=    1 NMatS0=   2346 NMatT0=    0 NMatD0=    1 NMtDS0=    0 NMtDT0=    0
 Symmetry not used in FoFCou.
 Integral accuracy reduced to 1.0D-05 until final iterations.

 Cycle   1  Pass 0  IDiag  1:
 E= -323.210351307264    
 DIIS: error= 3.72D-02 at cycle   1 NSaved=   1.
 NSaved= 1 IEnMin= 1 EnMin= -323.210351307264     IErMin= 1 ErrMin= 3.72D-02
 ErrMax= 3.72D-02  0.00D+00 EMaxC= 1.00D-01 BMatC= 1.99D-01 BMatP= 1.99D-01
 IDIUse=3 WtCom= 6.28D-01 WtEn= 3.72D-01
 Coeff-Com:  0.100D+01
 Coeff-En:   0.100D+01
 Coeff:      0.100D+01
 Gap=     0.212 Goal=   None    Shift=    0.000
 GapD=    0.212 DampG=1.000 DampE=0.500 DampFc=0.5000 IDamp=-1.
 Damping current iteration by 5.00D-01
 RMSDP=2.02D-02 MaxDP=4.00D-01              OVMax= 2.17D-01

 Cycle   2  Pass 0  IDiag  1:
 E= -323.261262436612     Delta-E=       -0.050911129349 Rises=F Damp=T
 DIIS: error= 1.68D-02 at cycle   2 NSaved=   2.
 NSaved= 2 IEnMin= 2 EnMin= -323.261262436612     IErMin= 2 ErrMin= 1.68D-02
 ErrMax= 1.68D-02  0.00D+00 EMaxC= 1.00D-01 BMatC= 2.95D-02 BMatP= 1.99D-01
 IDIUse=3 WtCom= 8.32D-01 WtEn= 1.68D-01
 Coeff-Com:  0.227D+00 0.773D+00
 Coeff-En:   0.342D+00 0.658D+00
 Coeff:      0.246D+00 0.754D+00
 Gap=     0.230 Goal=   None    Shift=    0.000
 RMSDP=5.67D-03 MaxDP=9.52D-02 DE=-5.09D-02 OVMax= 1.51D-01

 Cycle   3  Pass 0  IDiag  1:
 E= -323.360308444783     Delta-E=       -0.099046008170 Rises=F Damp=F
 DIIS: error= 2.44D-02 at cycle   3 NSaved=   3.
 NSaved= 3 IEnMin= 3 EnMin= -323.360308444783     IErMin= 2 ErrMin= 1.68D-02
 ErrMax= 2.44D-02  0.00D+00 EMaxC= 1.00D-01 BMatC= 3.69D-02 BMatP= 2.95D-02
 IDIUse=2 WtCom= 0.00D+00 WtEn= 1.00D+00
 Coeff-En:   0.000D+00 0.000D+00 0.100D+01
 Coeff:      0.000D+00 0.000D+00 0.100D+01
 Gap=     0.223 Goal=   None    Shift=    0.000
 RMSDP=1.24D-02 MaxDP=1.64D-01 DE=-9.90D-02 OVMax= 2.66D-01

 Cycle   4  Pass 0  IDiag  1:
 E= -323.114877722206     Delta-E=        0.245430722577 Rises=F Damp=F
 DIIS: error= 7.63D-02 at cycle   4 NSaved=   4.
 NSaved= 4 IEnMin= 3 EnMin= -323.360308444783     IErMin= 2 ErrMin= 1.68D-02
 ErrMax= 7.63D-02  0.00D+00 EMaxC= 1.00D-01 BMatC= 3.22D-01 BMatP= 2.95D-02
 IDIUse=2 WtCom= 0.00D+00 WtEn= 1.00D+00
 Coeff-En:   0.000D+00 0.000D+00 0.836D+00 0.164D+00
 Coeff:      0.000D+00 0.000D+00 0.836D+00 0.164D+00
 Gap=     0.209 Goal=   None    Shift=    0.000
 RMSDP=7.05D-03 MaxDP=1.06D-01 DE= 2.45D-01 OVMax= 1.49D-01

 Cycle   5  Pass 0  IDiag  1:
 E= -323.370320424315     Delta-E=       -0.255442702109 Rises=F Damp=F
 DIIS: error= 2.10D-02 at cycle   5 NSaved=   5.
 NSaved= 5 IEnMin= 5 EnMin= -323.370320424315     IErMin= 2 ErrMin= 1.68D-02
 ErrMax= 2.10D-02  0.00D+00 EMaxC= 1.00D-01 BMatC= 2.69D-02 BMatP= 2.95D-02
 IDIUse=3 WtCom= 7.90D-01 WtEn= 2.10D-01
 Coeff-Com: -0.146D-02 0.393D-01 0.358D+00-0.918D-01 0.696D+00
 Coeff-En:   0.000D+00 0.000D+00 0.436D+00 0.000D+00 0.564D+00
 Coeff:     -0.115D-02 0.311D-01 0.375D+00-0.725D-01 0.668D+00
 Gap=     0.208 Goal=   None    Shift=    0.000
 RMSDP=2.63D-03 MaxDP=3.04D-02 DE=-2.55D-01 OVMax= 4.79D-02

 Cycle   6  Pass 0  IDiag  1:
 E= -323.394016217673     Delta-E=       -0.023695793358 Rises=F Damp=F
 DIIS: error= 5.29D-04 at cycle   6 NSaved=   6.
 NSaved= 6 IEnMin= 6 EnMin= -323.394016217673     IErMin= 6 ErrMin= 5.29D-04
 ErrMax= 5.29D-04  0.00D+00 EMaxC= 1.00D-01 BMatC= 1.74D-05 BMatP= 2.69D-02
 IDIUse=3 WtCom= 9.95D-01 WtEn= 5.29D-03
 Coeff-Com: -0.351D-02 0.274D-02 0.126D+00-0.329D-01 0.263D+00 0.645D+00
 Coeff-En:   0.000D+00 0.000D+00 0.000D+00 0.000D+00 0.000D+00 0.100D+01
 Coeff:     -0.349D-02 0.272D-02 0.125D+00-0.327D-01 0.262D+00 0.647D+00
 Gap=     0.204 Goal=   None    Shift=    0.000
 RMSDP=1.24D-04 MaxDP=2.22D-03 DE=-2.37D-02 OVMax= 2.58D-03

 Cycle   7  Pass 0  IDiag  1:
 E= -323.394027009494     Delta-E=       -0.000010791822 Rises=F Damp=F
 DIIS: error= 4.95D-04 at cycle   7 NSaved=   7.
 NSaved= 7 IEnMin= 7 EnMin= -323.394027009494     IErMin= 7 ErrMin= 4.95D-04
 ErrMax= 4.95D-04  0.00D+00 EMaxC= 1.00D-01 BMatC= 5.98D-06 BMatP= 1.74D-05
 IDIUse=3 WtCom= 9.95D-01 WtEn= 4.95D-03
 Coeff-Com: -0.123D-02 0.662D-03 0.340D-01-0.110D-01 0.762D-01 0.370D+00
 Coeff-Com:  0.532D+00
 Coeff-En:   0.000D+00 0.000D+00 0.000D+00 0.000D+00 0.000D+00 0.296D+00
 Coeff-En:   0.704D+00
 Coeff:     -0.122D-02 0.659D-03 0.338D-01-0.110D-01 0.758D-01 0.369D+00
 Coeff:      0.533D+00
 Gap=     0.204 Goal=   None    Shift=    0.000
 RMSDP=5.07D-05 MaxDP=7.87D-04 DE=-1.08D-05 OVMax= 1.64D-03

 Cycle   8  Pass 0  IDiag  1:
 E= -323.394033047929     Delta-E=       -0.000006038435 Rises=F Damp=F
 DIIS: error= 6.24D-05 at cycle   8 NSaved=   8.
 NSaved= 8 IEnMin= 8 EnMin= -323.394033047929     IErMin= 8 ErrMin= 6.24D-05
 ErrMax= 6.24D-05  0.00D+00 EMaxC= 1.00D-01 BMatC= 5.08D-07 BMatP= 5.98D-06
 IDIUse=1 WtCom= 1.00D+00 WtEn= 0.00D+00
 Coeff-Com: -0.216D-03-0.425D-03 0.459D-02-0.216D-02 0.115D-01 0.160D+00
 Coeff-Com:  0.329D+00 0.498D+00
 Coeff:     -0.216D-03-0.425D-03 0.459D-02-0.216D-02 0.115D-01 0.160D+00
 Coeff:      0.329D+00 0.498D+00
 Gap=     0.204 Goal=   None    Shift=    0.000
 RMSDP=1.17D-05 MaxDP=1.16D-04 DE=-6.04D-06 OVMax= 1.77D-04

 Cycle   9  Pass 0  IDiag  1:
 E= -323.394033495699     Delta-E=       -0.000000447770 Rises=F Damp=F
 DIIS: error= 1.30D-05 at cycle   9 NSaved=   9.
 NSaved= 9 IEnMin= 9 EnMin= -323.394033495699     IErMin= 9 ErrMin= 1.30D-05
 ErrMax= 1.30D-05  0.00D+00 EMaxC= 1.00D-01 BMatC= 1.64D-08 BMatP= 5.08D-07
 IDIUse=1 WtCom= 1.00D+00 WtEn= 0.00D+00
 Coeff-Com: -0.173D-04-0.567D-03-0.805D-03 0.673D-04-0.122D-02 0.413D-01
 Coeff-Com:  0.107D+00 0.197D+00 0.657D+00
 Coeff:     -0.173D-04-0.567D-03-0.805D-03 0.673D-04-0.122D-02 0.413D-01
 Coeff:      0.107D+00 0.197D+00 0.657D+00
 Gap=     0.204 Goal=   None    Shift=    0.000
 RMSDP=2.93D-06 MaxDP=2.70D-05 DE=-4.48D-07 OVMax= 2.83D-05

 Initial convergence to 1.0D-05 achieved.  Increase integral accuracy.
 Cycle  10  Pass 1  IDiag  1:
 E= -323.394070614254     Delta-E=       -0.000037118556 Rises=F Damp=F
 DIIS: error= 8.87D-06 at cycle   1 NSaved=   1.
 NSaved= 1 IEnMin= 1 EnMin= -323.394070614254     IErMin= 1 ErrMin= 8.87D-06
 ErrMax= 8.87D-06  0.00D+00 EMaxC= 1.00D-01 BMatC= 1.07D-08 BMatP= 1.07D-08
 IDIUse=1 WtCom= 1.00D+00 WtEn= 0.00D+00
 Coeff-Com:  0.100D+01
 Coeff:      0.100D+01
 Gap=     0.204 Goal=   None    Shift=    0.000
 RMSDP=2.93D-06 MaxDP=2.70D-05 DE=-3.71D-05 OVMax= 6.97D-05

 Cycle  11  Pass 1  IDiag  1:
 E= -323.394070622486     Delta-E=       -0.000000008231 Rises=F Damp=F
 DIIS: error= 1.55D-05 at cycle   2 NSaved=   2.
 NSaved= 2 IEnMin= 2 EnMin= -323.394070622486     IErMin= 1 ErrMin= 8.87D-06
 ErrMax= 1.55D-05  0.00D+00 EMaxC= 1.00D-01 BMatC= 1.14D-08 BMatP= 1.07D-08
 IDIUse=1 WtCom= 1.00D+00 WtEn= 0.00D+00
 Coeff-Com:  0.511D+00 0.489D+00
 Coeff:      0.511D+00 0.489D+00
 Gap=     0.204 Goal=   None    Shift=    0.000
 RMSDP=2.94D-06 MaxDP=4.44D-05 DE=-8.23D-09 OVMax= 6.44D-05

 Cycle  12  Pass 1  IDiag  1:
 E= -323.394070628828     Delta-E=       -0.000000006342 Rises=F Damp=F
 DIIS: error= 1.05D-05 at cycle   3 NSaved=   3.
 NSaved= 3 IEnMin= 3 EnMin= -323.394070628828     IErMin= 1 ErrMin= 8.87D-06
 ErrMax= 1.05D-05  0.00D+00 EMaxC= 1.00D-01 BMatC= 4.31D-09 BMatP= 1.07D-08
 IDIUse=1 WtCom= 1.00D+00 WtEn= 0.00D+00
 Coeff-Com:  0.770D-01 0.367D+00 0.556D+00
 Coeff:      0.770D-01 0.367D+00 0.556D+00
 Gap=     0.204 Goal=   None    Shift=    0.000
 RMSDP=1.42D-06 MaxDP=2.11D-05 DE=-6.34D-09 OVMax= 3.23D-05

 Cycle  13  Pass 1  IDiag  1:
 E= -323.394070632035     Delta-E=       -0.000000003208 Rises=F Damp=F
 DIIS: error= 3.20D-06 at cycle   4 NSaved=   4.
 NSaved= 4 IEnMin= 4 EnMin= -323.394070632035     IErMin= 4 ErrMin= 3.20D-06
 ErrMax= 3.20D-06  0.00D+00 EMaxC= 1.00D-01 BMatC= 8.00D-10 BMatP= 4.31D-09
 IDIUse=1 WtCom= 1.00D+00 WtEn= 0.00D+00
 Coeff-Com: -0.220D-01 0.184D+00 0.385D+00 0.453D+00
 Coeff:     -0.220D-01 0.184D+00 0.385D+00 0.453D+00
 Gap=     0.204 Goal=   None    Shift=    0.000
 RMSDP=4.56D-07 MaxDP=5.46D-06 DE=-3.21D-09 OVMax= 6.94D-06

 Cycle  14  Pass 1  IDiag  1:
 E= -323.394070632698     Delta-E=       -0.000000000662 Rises=F Damp=F
 DIIS: error= 5.91D-07 at cycle   5 NSaved=   5.
 NSaved= 5 IEnMin= 5 EnMin= -323.394070632698     IErMin= 5 ErrMin= 5.91D-07
 ErrMax= 5.91D-07  0.00D+00 EMaxC= 1.00D-01 BMatC= 2.62D-11 BMatP= 8.00D-10
 IDIUse=1 WtCom= 1.00D+00 WtEn= 0.00D+00
 Coeff-Com: -0.152D-01 0.928D-01 0.200D+00 0.267D+00 0.455D+00
 Coeff:     -0.152D-01 0.928D-01 0.200D+00 0.267D+00 0.455D+00
 Gap=     0.204 Goal=   None    Shift=    0.000
 RMSDP=8.97D-08 MaxDP=1.05D-06 DE=-6.62D-10 OVMax= 1.26D-06

 Cycle  15  Pass 1  IDiag  1:
 E= -323.394070632718     Delta-E=       -0.000000000021 Rises=F Damp=F
 DIIS: error= 1.59D-07 at cycle   6 NSaved=   6.
 NSaved= 6 IEnMin= 6 EnMin= -323.394070632718     IErMin= 6 ErrMin= 1.59D-07
 ErrMax= 1.59D-07  0.00D+00 EMaxC= 1.00D-01 BMatC= 1.06D-12 BMatP= 2.62D-11
 IDIUse=1 WtCom= 1.00D+00 WtEn= 0.00D+00
 Coeff-Com: -0.367D-02 0.171D-01 0.343D-01 0.606D-01 0.189D+00 0.702D+00
 Coeff:     -0.367D-02 0.171D-01 0.343D-01 0.606D-01 0.189D+00 0.702D+00
 Gap=     0.204 Goal=   None    Shift=    0.000
 RMSDP=2.03D-08 MaxDP=5.03D-07 DE=-2.08D-11 OVMax= 6.08D-07

 Cycle  16  Pass 1  IDiag  1:
 E= -323.394070632721     Delta-E=       -0.000000000002 Rises=F Damp=F
 DIIS: error= 4.72D-08 at cycle   7 NSaved=   7.
 NSaved= 7 IEnMin= 7 EnMin= -323.394070632721     IErMin= 7 ErrMin= 4.72D-08
 ErrMax= 4.72D-08  0.00D+00 EMaxC= 1.00D-01 BMatC= 2.62D-13 BMatP= 1.06D-12
 IDIUse=1 WtCom= 1.00D+00 WtEn= 0.00D+00
 Coeff-Com: -0.748D-03 0.145D-02 0.101D-02 0.111D-01 0.731D-01 0.431D+00
 Coeff-Com:  0.483D+00
 Coeff:     -0.748D-03 0.145D-02 0.101D-02 0.111D-01 0.731D-01 0.431D+00
 Coeff:      0.483D+00
 Gap=     0.204 Goal=   None    Shift=    0.000
 RMSDP=9.41D-09 MaxDP=1.66D-07 DE=-2.27D-12 OVMax= 1.93D-07

 SCF Done:  E(RB3LYP) =  -323.394070633     A.U. after   16 cycles
            NFock= 16  Conv=0.94D-08     -V/T= 2.0044
 KE= 3.219888123162D+02 PE=-1.253391264292D+03 EE= 3.599390057261D+02
 Leave Link  502 at Wed Apr 13 07:57:36 2016, MaxMem=    33554432 cpu:        10.3
 (Enter /usr/local/gau/g09/l801.exe)
 DoSCS=F DFT=T ScalE2(SS,OS)=  1.000000  1.000000
 Range of M.O.s used for correlation:     1    68
 NBasis=    68 NAE=    24 NBE=    24 NFC=     0 NFV=     0
 NROrb=     68 NOA=    24 NOB=    24 NVA=    44 NVB=    44
 Leave Link  801 at Wed Apr 13 07:57:37 2016, MaxMem=    33554432 cpu:         0.0
 (Enter /usr/local/gau/g09/l1101.exe)
 Using compressed storage, NAtomX=    13.
 Will process     14 centers per pass.
 Leave Link 1101 at Wed Apr 13 07:57:37 2016, MaxMem=    33554432 cpu:         0.1
 (Enter /usr/local/gau/g09/l1102.exe)
 Symmetrizing basis deriv contribution to polar:
 IMax=3 JMax=2 DiffMx= 0.00D+00
 Leave Link 1102 at Wed Apr 13 07:57:37 2016, MaxMem=    33554432 cpu:         0.0
 (Enter /usr/local/gau/g09/l1110.exe)
 Forming Gx(P) for the SCF density, NAtomX=    13.
 Integral derivatives from FoFJK, PRISM(SPDF).
 Do as many integral derivatives as possible in FoFJK.
 G2DrvN: MDV=      33554224.
 G2DrvN: will do    14 centers at a time, making    1 passes.
 Calling FoFCou, ICntrl=  3107 FMM=F I1Cent=   0 AccDes= 0.00D+00.
 FoFJK:  IHMeth= 1 ICntrl=    3107 DoSepK=F KAlg= 0 I1Cent=   0 FoldK=F
 IRaf=         0 NMat=   1 IRICut=       1 DoRegI=T DoRafI=F ISym2E= 0.
 FoFCou: FMM=F IPFlag=           0 FMFlag=      100000 FMFlg1=           0
         NFxFlg=           0 DoJE=F BraDBF=F KetDBF=F FulRan=T
         wScrn=  0.000000 ICntrl=    3107 IOpCl=  0 I1Cent=           0 NGrid=           0
         NMat0=    1 NMatS0=      1 NMatT0=    0 NMatD0=    1 NMtDS0=    0 NMtDT0=    0
 Symmetry not used in FoFCou.
 End of G2Drv F.D. properties file   721 does not exist.
 End of G2Drv F.D. properties file   722 does not exist.
 End of G2Drv F.D. properties file   788 does not exist.
 Leave Link 1110 at Wed Apr 13 07:57:58 2016, MaxMem=    33554432 cpu:        20.0
 (Enter /usr/local/gau/g09/l1002.exe)
 Minotr:  Closed shell wavefunction.
          IDoAtm=1111111111111
          Direct CPHF calculation.
          Differentiating once with respect to nuclear coordinates.
          Requested convergence is 1.0D-08 RMS, and 1.0D-07 maximum.
          Secondary convergence is 1.0D-12 RMS, and 1.0D-12 maximum.
          NewPWx=T KeepS1=F KeepF1=F KeepIn=T MapXYZ=F SortEE=F KeepMc=T.
          MDV=      33554230 using IRadAn=       2.
 Generate precomputed XC quadrature information.
 Keep R1 ints in memory in canonical form, NReq=3645290.
 FoFCou: FMM=F IPFlag=           0 FMFlag=           0 FMFlg1=           0
         NFxFlg=           0 DoJE=F BraDBF=F KetDBF=F FulRan=T
         wScrn=  0.000000 ICntrl=     600 IOpCl=  0 I1Cent=           0 NGrid=           0
         NMat0=    1 NMatS0=   2346 NMatT0=    0 NMatD0=    1 NMtDS0=    0 NMtDT0=    0
 Symmetry not used in FoFCou.
          Solving linear equations simultaneously, MaxMat=       0.
          There are    42 degrees of freedom in the 1st order CPHF.  IDoFFX=6 NUNeed=     0.
     36 vectors produced by pass  0 Test12= 2.51D-15 2.38D-09 XBig12= 1.71D-01 1.24D-01.
 AX will form    36 AO Fock derivatives at one time.
     36 vectors produced by pass  1 Test12= 2.51D-15 2.38D-09 XBig12= 2.86D-02 4.44D-02.
     36 vectors produced by pass  2 Test12= 2.51D-15 2.38D-09 XBig12= 1.05D-04 1.66D-03.
     36 vectors produced by pass  3 Test12= 2.51D-15 2.38D-09 XBig12= 2.10D-07 8.20D-05.
     36 vectors produced by pass  4 Test12= 2.51D-15 2.38D-09 XBig12= 2.21D-10 2.21D-06.
     17 vectors produced by pass  5 Test12= 2.51D-15 2.38D-09 XBig12= 1.20D-13 4.77D-08.
 InvSVY:  IOpt=1 It=  1 EMax= 2.55D-15
 Solved reduced A of dimension   197 with    36 vectors.
 End of Minotr F.D. properties file   721 does not exist.
 End of Minotr F.D. properties file   722 does not exist.
 End of Minotr F.D. properties file   788 does not exist.
 Leave Link 1002 at Wed Apr 13 07:58:13 2016, MaxMem=    33554432 cpu:        14.5
 (Enter /usr/local/gau/g09/l601.exe)
 Copying SCF densities to generalized density rwf, IOpCl= 0 IROHF=0.

 **********************************************************************

            Population analysis using the SCF density.

 **********************************************************************

 Orbital symmetries:
       Occupied  (A) (A) (A) (A) (A) (A) (A) (A) (A) (A) (A) (A)
                 (A) (A) (A) (A) (A) (A) (A) (A) (A) (A) (A) (A)
       Virtual   (A) (A) (A) (A) (A) (A) (A) (A) (A) (A) (A) (A)
                 (A) (A) (A) (A) (A) (A) (A) (A) (A) (A) (A) (A)
                 (A) (A) (A) (A) (A) (A) (A) (A) (A) (A) (A) (A)
                 (A) (A) (A) (A) (A) (A) (A) (A)
 The electronic state is 1-A.
 Alpha  occ. eigenvalues --  -19.16837 -19.13069 -14.36699 -10.28907 -10.24373
 Alpha  occ. eigenvalues --  -10.19878  -1.07131  -1.02360  -0.93998  -0.78792
 Alpha  occ. eigenvalues --   -0.72991  -0.61129  -0.58935  -0.52631  -0.47362
 Alpha  occ. eigenvalues --   -0.45323  -0.42394  -0.40625  -0.38848  -0.35819
 Alpha  occ. eigenvalues --   -0.32008  -0.29407  -0.28562  -0.18609
 Alpha virt. eigenvalues --    0.01819   0.04411   0.06491   0.09959   0.10706
 Alpha virt. eigenvalues --    0.15390   0.16638   0.16919   0.19977   0.21647
 Alpha virt. eigenvalues --    0.26606   0.37049   0.43173   0.51809   0.54454
 Alpha virt. eigenvalues --    0.55733   0.61247   0.62487   0.65713   0.66252
 Alpha virt. eigenvalues --    0.72079   0.74863   0.75737   0.78958   0.82553
 Alpha virt. eigenvalues --    0.85864   0.87924   0.90455   0.91360   0.93692
 Alpha virt. eigenvalues --    0.96463   0.99300   0.99716   1.03110   1.07802
 Alpha virt. eigenvalues --    1.11998   1.16612   1.21952   1.28734   1.41947
 Alpha virt. eigenvalues --    1.45934   1.54530   1.91181   1.95957
          Condensed to atoms (all electrons):
               1          2          3          4          5          6
     1  N    7.318051   0.324230   0.193095   0.000045  -0.058581  -0.140691
     2  H    0.324230   0.352585  -0.019371   0.000003  -0.004380   0.006406
     3  C    0.193095  -0.019371   5.675486   0.001443   0.299804   0.379563
     4  H    0.000045   0.000003   0.001443   0.420615   0.000348  -0.037950
     5  C   -0.058581  -0.004380   0.299804   0.000348   5.080572   0.012387
     6  C   -0.140691   0.006406   0.379563  -0.037950   0.012387   5.082016
     7  H    0.001392   0.000965  -0.043851  -0.000079   0.370432  -0.002500
     8  H    0.003550  -0.000001  -0.033105  -0.000458   0.375322  -0.002849
     9  H    0.001809   0.001981  -0.047050   0.000146   0.366242   0.000088
    10  O   -0.027059   0.000447  -0.174911   0.003016   0.003020   0.230514
    11  H    0.306993  -0.013940  -0.039292   0.000008   0.003355  -0.006577
    12  O    0.001565   0.000013  -0.110809   0.238169  -0.008343   0.235088
    13  H   -0.070061   0.003842  -0.263522  -0.002317   0.006235  -0.070555
               7          8          9         10         11         12
     1  N    0.001392   0.003550   0.001809  -0.027059   0.306993   0.001565
     2  H    0.000965  -0.000001   0.001981   0.000447  -0.013940   0.000013
     3  C   -0.043851  -0.033105  -0.047050  -0.174911  -0.039292  -0.110809
     4  H   -0.000079  -0.000458   0.000146   0.003016   0.000008   0.238169
     5  C    0.370432   0.375322   0.366242   0.003020   0.003355  -0.008343
     6  C   -0.002500  -0.002849   0.000088   0.230514  -0.006577   0.235088
     7  H    0.581248  -0.022672  -0.043556  -0.000048  -0.000069   0.000320
     8  H   -0.022672   0.505103  -0.024203   0.000157  -0.000182   0.010714
     9  H   -0.043556  -0.024203   0.599511   0.000005  -0.000005   0.000477
    10  O   -0.000048   0.000157   0.000005   8.369390   0.004030  -0.064882
    11  H   -0.000069  -0.000182  -0.000005   0.004030   0.346592   0.000049
    12  O    0.000320   0.010714   0.000477  -0.064882   0.000049   8.267230
    13  H   -0.000116  -0.000322  -0.001070   0.197563   0.019888   0.024919
              13
     1  N   -0.070061
     2  H    0.003842
     3  C   -0.263522
     4  H   -0.002317
     5  C    0.006235
     6  C   -0.070555
     7  H   -0.000116
     8  H   -0.000322
     9  H   -0.001070
    10  O    0.197563
    11  H    0.019888
    12  O    0.024919
    13  H    0.813079
 Mulliken charges:
               1
     1  N   -0.854336
     2  H    0.347221
     3  C    0.182520
     4  H    0.377011
     5  C   -0.446413
     6  C    0.315058
     7  H    0.158534
     8  H    0.188945
     9  H    0.145624
    10  O   -0.541240
    11  H    0.379149
    12  O   -0.594509
    13  H    0.342436
 Sum of Mulliken charges =   0.00000
 Mulliken charges with hydrogens summed into heavy atoms:
               1
     1  N   -0.127966
     3  C    0.182520
     5  C    0.046690
     6  C    0.657494
    10  O   -0.541240
    12  O   -0.217498
 APT charges:
               1
     1  N   -1.338141
     2  H    0.761612
     3  C    0.255272
     4  H    0.657670
     5  C   -1.246568
     6  C    0.026780
     7  H    0.446691
     8  H    0.380854
     9  H    0.434339
    10  O   -0.392932
    11  H    0.553510
    12  O   -0.732693
    13  H    0.193606
 Sum of APT charges =   0.00000
 APT charges with hydrogens summed into heavy atoms:
               1
     1  N   -0.023019
     3  C    0.255272
     5  C    0.015316
     6  C    0.220386
    10  O   -0.392932
    12  O   -0.075024
 Electronic spatial extent (au):  <R**2>=            600.2301
 Charge=              0.0000 electrons
 Dipole moment (field-independent basis, Debye):
    X=              3.9833    Y=              0.5177    Z=              1.9754  Tot=              4.4762
 Quadrupole moment (field-independent basis, Debye-Ang):
   XX=            -33.2824   YY=            -35.3782   ZZ=            -37.8587
   XY=             -6.3271   XZ=             -2.7702   YZ=              1.8502
 Traceless Quadrupole moment (field-independent basis, Debye-Ang):
   XX=              2.2240   YY=              0.1283   ZZ=             -2.3523
   XY=             -6.3271   XZ=             -2.7702   YZ=              1.8502
 Octapole moment (field-independent basis, Debye-Ang**2):
  XXX=              6.2117  YYY=             -6.4770  ZZZ=              1.3558  XYY=              8.6381
  XXY=              5.3502  XXZ=              8.3131  XZZ=             -4.4311  YZZ=              2.2821
  YYZ=              3.8730  XYZ=             -5.9837
 Hexadecapole moment (field-independent basis, Debye-Ang**3):
 XXXX=           -343.6920 YYYY=           -269.2166 ZZZZ=            -43.2497 XXXY=            -43.5164
 XXXZ=            -13.4811 YYYX=            -25.7362 YYYZ=              3.0413 ZZZX=             -2.0487
 ZZZY=              0.7728 XXYY=           -110.2330 XXZZ=            -71.4922 YYZZ=            -57.5873
 XXYZ=              7.6543 YYXZ=             -4.9913 ZZXY=             -2.2885
 N-N= 2.480693756168D+02 E-N=-1.253391265414D+03  KE= 3.219888123162D+02
  Exact polarizability:   0.000   0.000   0.000   0.000   0.000   0.000
 Approx polarizability: 113.050   5.044  69.838  -2.035  -0.962  32.437
 No NMR shielding tensors so no spin-rotation constants.
 Leave Link  601 at Wed Apr 13 07:58:14 2016, MaxMem=    33554432 cpu:         0.1
 (Enter /usr/local/gau/g09/l701.exe)
 Compute integral second derivatives.
 ... and contract with generalized density number  0.
 Leave Link  701 at Wed Apr 13 07:58:15 2016, MaxMem=    33554432 cpu:         0.1
 (Enter /usr/local/gau/g09/l702.exe)
 L702 exits ... SP integral derivatives will be done elsewhere.
 Leave Link  702 at Wed Apr 13 07:58:15 2016, MaxMem=    33554432 cpu:         0.0
 (Enter /usr/local/gau/g09/l703.exe)
 Compute integral second derivatives, UseDBF=F ICtDFT=           0.
 Integral derivatives from FoFJK, PRISM(SPDF).
 Calling FoFJK, ICntrl=    100147 FMM=F ISym2X=0 I1Cent= 0 IOpClX= 0 NMat=1 NMatS=1 NMatT=0.
 FoFJK:  IHMeth= 1 ICntrl=  100147 DoSepK=F KAlg= 0 I1Cent=   0 FoldK=F
 IRaf=         0 NMat=   1 IRICut=       1 DoRegI=T DoRafI=F ISym2E= 0.
 FoFCou: FMM=F IPFlag=           0 FMFlag=      100000 FMFlg1=         800
         NFxFlg=           0 DoJE=F BraDBF=F KetDBF=F FulRan=T
         wScrn=  0.000000 ICntrl=  100147 IOpCl=  0 I1Cent=           0 NGrid=           0
         NMat0=    1 NMatS0=      1 NMatT0=    0 NMatD0=    1 NMtDS0=    0 NMtDT0=    0
 Symmetry not used in FoFCou.
 Leave Link  703 at Wed Apr 13 07:58:39 2016, MaxMem=    33554432 cpu:        22.5
 (Enter /usr/local/gau/g09/l716.exe)
 Dipole        = 1.56713673D+00 2.03696931D-01 7.77176694D-01
 Polarizability= 0.00000000D+00 0.00000000D+00 0.00000000D+00
                 0.00000000D+00 0.00000000D+00 0.00000000D+00
 ***** Axes restored to original set *****
 -------------------------------------------------------------------
 Center     Atomic                   Forces (Hartrees/Bohr)
 Number     Number              X              Y              Z
 -------------------------------------------------------------------
      1        7           0.038956129    0.033155458    0.003689781
      2        1           0.000280128   -0.001017228   -0.000418295
      3        6           0.041862200   -0.093510969    0.009541085
      4        1          -0.001617584    0.003608773    0.001810923
      5        6           0.004462716   -0.000462008    0.000521395
      6        6          -0.069014401   -0.034566540    0.004076141
      7        1          -0.000296169    0.000066914    0.000657583
      8        1          -0.001129516    0.001571235    0.000071156
      9        1          -0.000372480    0.000194850   -0.000609452
     10        8           0.066281782   -0.026003075    0.005548970
     11        1           0.012629961    0.021243198    0.002736885
     12        8           0.011942000    0.003346938   -0.002935063
     13        1          -0.103984764    0.092372456   -0.024691109
 -------------------------------------------------------------------
 Cartesian Forces:  Max     0.103984764 RMS     0.033996313
 Force constants in Cartesian coordinates: 
                1             2             3             4             5 
      1  0.904357D+00
      2  0.574820D-02  0.717731D+00
      3 -0.115036D-01 -0.389554D-01 -0.341541D-02
      4 -0.474787D+00 -0.264360D-01  0.330733D-01  0.487977D+00
      5 -0.225569D-01 -0.645074D-01  0.592817D-02  0.307880D-01  0.670807D-01
      6  0.429449D-01  0.761602D-02  0.196056D-02 -0.372830D-01 -0.524503D-02
      7 -0.171891D+00 -0.806865D-01  0.985263D-03 -0.673019D-02 -0.416192D-01
      8 -0.135760D+00 -0.293310D+00 -0.193071D-02 -0.991342D-03 -0.128150D-02
      9 -0.207231D-02 -0.739629D-02 -0.136492D-01  0.183494D-02  0.238766D-02
     10 -0.363848D-03  0.205664D-02  0.260459D-02 -0.203325D-03 -0.353290D-03
     11  0.341292D-03 -0.694542D-03  0.138576D-02  0.309164D-03 -0.148082D-03
     12  0.149146D-02 -0.198916D-02 -0.528638D-03  0.385231D-03  0.307751D-03
     13  0.109363D-01 -0.203023D-01  0.215930D-03  0.209984D-02 -0.576761D-03
     14  0.245459D-01 -0.395388D-01  0.182945D-03  0.171610D-02  0.270451D-02
     15  0.206131D-02 -0.264984D-03  0.242623D-02 -0.307741D-04  0.321979D-03
     16 -0.370576D-01  0.985949D-02  0.414529D-02 -0.548364D-03 -0.338662D-03
     17 -0.478875D-01 -0.180624D-01 -0.645009D-03  0.594738D-02 -0.781134D-02
     18 -0.398320D-02 -0.371598D-03 -0.338595D-02 -0.390692D-03 -0.124177D-03
     19  0.241546D-02 -0.968997D-03  0.182977D-02  0.292610D-03  0.254491D-03
     20 -0.140556D-02  0.296077D-02 -0.184940D-02 -0.546758D-03 -0.568710D-03
     21  0.933781D-03  0.744270D-03  0.144503D-03 -0.363741D-03  0.834828D-03
     22 -0.351872D-02  0.404907D-02 -0.226536D-03 -0.397563D-03  0.235966D-03
     23  0.446161D-02 -0.339803D-02  0.246360D-03  0.564391D-03  0.402866D-03
     24  0.102914D-03 -0.897863D-04  0.132734D-02 -0.891252D-04 -0.277154D-04
     25  0.202213D-02 -0.106283D-02 -0.171062D-02  0.414307D-03  0.298086D-03
     26 -0.694070D-03  0.307008D-02  0.155146D-02 -0.713563D-03 -0.635242D-03
     27 -0.954698D-03 -0.657748D-03  0.157887D-03  0.308497D-03 -0.965968D-03
     28  0.136140D-02 -0.144611D-02  0.182947D-02  0.134459D-02  0.211945D-02
     29 -0.115542D-01  0.196292D-01  0.195605D-02 -0.270807D-02  0.165841D-02
     30  0.592570D-03 -0.118362D-02 -0.177735D-02 -0.280362D-04  0.207872D-03
     31 -0.186002D+00  0.172235D+00 -0.171160D-01 -0.860843D-02  0.297518D-01
     32  0.178665D+00 -0.340837D+00  0.326871D-01 -0.700851D-02  0.905558D-02
     33 -0.227468D-01  0.410378D-01 -0.972937D-02  0.312744D-02 -0.337966D-02
     34 -0.327500D-02 -0.532435D-02 -0.306673D-02  0.140007D-02 -0.113719D-02
     35 -0.448211D-02 -0.492493D-02 -0.309240D-02  0.736661D-04  0.828809D-04
     36 -0.140254D-02  0.284660D-02  0.102192D-01 -0.351719D-03 -0.629370D-03
     37 -0.441966D-01 -0.577209D-01 -0.110601D-01 -0.225336D-02  0.313426D-02
     38  0.105784D-01  0.218811D-01  0.253511D-02 -0.994459D-03 -0.603271D-02
     39 -0.546380D-02 -0.133613D-02  0.162502D-01 -0.192289D-03  0.383655D-03
                6             7             8             9            10 
      6 -0.260141D-02
      7 -0.302023D-02  0.861071D+00
      8 -0.556278D-02 -0.331388D-01  0.660852D+00
      9 -0.917189D-03  0.178923D-01 -0.107024D-01  0.581908D-01
     10  0.664092D-03 -0.204691D-03 -0.356022D-02 -0.204350D-02  0.155821D+00
     11  0.750949D-03  0.261981D-02 -0.182931D-02 -0.803458D-03  0.626597D-01
     12  0.141676D-03  0.370952D-02  0.380055D-02 -0.200549D-03  0.200754D+00
     13 -0.162527D-03 -0.126649D+00  0.652618D-01  0.221420D-02 -0.585036D-03
     14  0.342990D-03  0.519711D-01 -0.154409D+00 -0.185265D-02 -0.244157D-03
     15  0.461891D-02 -0.975280D-03  0.338174D-02 -0.610540D-01 -0.166942D-02
     16  0.631557D-03 -0.496213D+00 -0.436436D-01 -0.912802D-02 -0.187913D-01
     17  0.217714D-03 -0.347464D-01 -0.996372D-01 -0.228937D-02 -0.819773D-02
     18 -0.573580D-02 -0.749742D-02 -0.628840D-02 -0.397457D-01 -0.145023D-01
     19 -0.235289D-03 -0.195308D-01  0.496825D-02 -0.158431D-01 -0.770151D-04
     20  0.465114D-03  0.229467D-01 -0.616204D-02  0.225504D-01  0.118891D-03
     21 -0.767773D-03 -0.436821D-03 -0.624554D-03  0.538148D-02  0.225937D-03
     22 -0.511893D-04  0.101911D-01  0.200702D-01 -0.148278D-03 -0.193796D-03
     23  0.296488D-04 -0.139527D-01 -0.226177D-01  0.434939D-04  0.477641D-04
     24 -0.842196D-03 -0.182965D-03 -0.940898D-04 -0.200700D-02 -0.515486D-03
     25  0.395794D-03 -0.193597D-01  0.386944D-02  0.150501D-01  0.176127D-03
     26 -0.292307D-03  0.221456D-01 -0.469620D-02 -0.218867D-01 -0.385273D-04
     27 -0.751687D-03  0.261724D-03  0.435954D-03  0.513115D-02 -0.324305D-04
     28 -0.569738D-03 -0.325213D-01  0.531835D-01 -0.206517D-02 -0.112929D-03
     29 -0.200794D-03  0.365966D-02 -0.278392D-01 -0.437509D-03  0.139735D-02
     30  0.357225D-03 -0.893312D-03  0.295892D-02  0.394150D-02  0.469703D-03
     31 -0.512272D-02  0.146335D-01 -0.141538D-01  0.183739D-02  0.151874D-03
     32  0.347737D-03  0.182501D-01 -0.195801D-01  0.237052D-02 -0.168764D-04
     33  0.603804D-02  0.166825D-02  0.361501D-03 -0.673940D-02 -0.655790D-03
     34 -0.404561D-03 -0.168323D-01 -0.321331D-01  0.400151D-02 -0.137119D+00
     35 -0.704801D-03 -0.820186D-02 -0.298891D-02  0.300759D-02 -0.533081D-01
     36  0.343674D-02 -0.723871D-03 -0.322827D-02  0.237716D-02 -0.183437D+00
     37  0.221295D-02  0.403730D-02  0.116028D+00 -0.115301D-01  0.150256D-02
     38  0.223554D-02  0.907523D-01 -0.265011D-01  0.150087D-01 -0.561501D-03
     39 -0.493710D-02 -0.107871D-01  0.174925D-01  0.492909D-01 -0.186251D-02
               11            12            13            14            15 
     11  0.513238D-01
     12  0.508764D-01  0.304831D+00
     13  0.503202D-03  0.300117D-03  0.543278D+00
     14  0.173914D-03  0.165624D-03  0.622965D-01  0.539219D+00
     15 -0.126756D-02 -0.828652D-04  0.574590D-03  0.222393D-03  0.532289D+00
     16 -0.351925D-01  0.617107D-02 -0.277411D-01  0.147801D-01 -0.157398D-02
     17 -0.169933D-01  0.105131D-01  0.296337D-01  0.725467D-02  0.175499D-02
     18 -0.285302D-01  0.463097D-02 -0.710428D-03  0.292107D-03  0.129531D-01
     19 -0.143260D-04 -0.325436D-04 -0.131024D+00 -0.412883D-02 -0.119781D+00
     20  0.106046D-03 -0.189527D-03 -0.387919D-02 -0.486150D-01 -0.137687D-02
     21  0.655277D-04 -0.106478D-03 -0.119483D+00 -0.301907D-02 -0.218218D+00
     22 -0.182258D-03 -0.518341D-04 -0.129942D+00 -0.131388D+00 -0.648696D-03
     23  0.340979D-03 -0.705265D-04 -0.123647D+00 -0.246015D+00 -0.106521D-02
     24  0.353158D-03  0.780736D-04 -0.347629D-03 -0.601194D-03 -0.493051D-01
     25  0.191963D-03  0.129440D-03 -0.132694D+00 -0.561929D-02  0.119322D+00
     26 -0.177432D-03  0.105788D-03 -0.495311D-02 -0.494966D-01  0.283608D-02
     27  0.120405D-04  0.389693D-04  0.118715D+00  0.497838D-02 -0.213810D+00
     28  0.460946D-02  0.102561D-02  0.136748D-02 -0.821567D-02 -0.316999D-02
     29  0.807513D-03 -0.282130D-03 -0.232894D-02  0.474137D-02 -0.140306D-03
     30  0.178550D-02 -0.134355D-02  0.205276D-03 -0.600508D-03  0.103283D-01
     31 -0.272784D-03 -0.451510D-03 -0.256797D-02 -0.169877D-02  0.240188D-03
     32 -0.372445D-03 -0.172566D-03 -0.468818D-02 -0.247280D-02  0.635123D-04
     33 -0.390618D-03  0.177723D-03 -0.856652D-04 -0.600592D-03 -0.591856D-03
     34 -0.331199D-01 -0.211388D+00  0.112920D-02 -0.133079D-02  0.191756D-02
     35 -0.352494D-01 -0.618820D-01  0.266918D-02 -0.431234D-02  0.992983D-03
     36 -0.229567D-01 -0.308976D+00 -0.583525D-03 -0.408482D-03 -0.688263D-02
     37 -0.245278D-02 -0.204273D-02 -0.760769D-02 -0.268463D-02  0.373380D-02
     38  0.271231D-02 -0.118333D-02  0.116076D-04 -0.923377D-02 -0.545875D-02
     39 -0.128079D-02  0.133965D-02 -0.852210D-03  0.898051D-03 -0.126717D-01
               16            17            18            19            20 
     16  0.759159D+00
     17  0.169218D+00  0.520582D+00
     18  0.276802D-01 -0.198867D-01  0.643639D-01
     19  0.265366D-02  0.286076D-02 -0.244189D-03  0.146638D+00
     20 -0.178438D-02 -0.403310D-02 -0.856795D-03 -0.197818D-02  0.517029D-01
     21  0.199689D-02 -0.501539D-03 -0.673006D-03  0.133356D+00  0.238317D-02
     22  0.828256D-03  0.164711D-02  0.178665D-03 -0.978018D-02 -0.157340D-01
     23 -0.178730D-02 -0.217826D-02  0.237501D-03  0.770986D-03  0.875534D-03
     24  0.430769D-04 -0.998273D-05  0.316681D-03 -0.156930D-01 -0.246001D-01
     25  0.277456D-02  0.203859D-02  0.436411D-03  0.113336D-01  0.195456D-03
     26 -0.204073D-02 -0.321784D-02  0.607744D-03 -0.799693D-04  0.454979D-03
     27 -0.172441D-02  0.476924D-03 -0.977247D-03  0.174057D-01  0.178532D-02
     28 -0.104033D+00  0.113862D+00 -0.760089D-02 -0.205368D-02  0.233497D-02
     29  0.382196D-01 -0.142049D+00  0.102413D-01  0.141788D-02 -0.774218D-03
     30 -0.531975D-02  0.707029D-02 -0.439451D-01  0.133879D-02 -0.178840D-02
     31  0.538131D-02 -0.122653D-02  0.589620D-03 -0.111958D-03 -0.632527D-05
     32  0.556703D-02 -0.402942D-02  0.115412D-02 -0.818355D-04  0.203473D-03
     33 -0.166123D-02  0.324080D-03  0.303006D-02 -0.154146D-03 -0.112787D-03
     34 -0.122017D+00 -0.888391D-01  0.369633D-03 -0.518791D-03 -0.179398D-03
     35 -0.697321D-01 -0.187805D+00  0.265535D-01 -0.563736D-03  0.115839D-02
     36 -0.240296D-01 -0.856317D-02 -0.472769D-01 -0.501156D-03  0.126931D-02
     37  0.356054D-01 -0.144310D+00  0.567458D-02 -0.237653D-03 -0.822959D-04
     38 -0.831250D-01 -0.420198D-01  0.169716D-01 -0.245649D-02  0.269095D-02
     39  0.276894D-02  0.115387D-01  0.564449D-01 -0.144583D-02  0.232059D-02
               21            22            23            24            25 
     21  0.237679D+00
     22  0.133504D-02  0.141579D+00
     23  0.791941D-03  0.136369D+00  0.269576D+00
     24  0.336104D-03  0.100664D-02  0.854048D-03  0.497125D-01
     25 -0.166929D-01 -0.967334D-02  0.921254D-03  0.154674D-01  0.148619D+00
     26 -0.137471D-02 -0.153505D-01  0.103099D-02  0.244481D-01 -0.456159D-03
     27 -0.241446D-01 -0.157396D-02 -0.706138D-03  0.531026D-03 -0.133217D+00
     28  0.213115D-03 -0.136658D-03  0.503205D-03  0.497050D-04 -0.124987D-02
     29  0.809386D-03 -0.516039D-03  0.329358D-03  0.283527D-05  0.146029D-02
     30 -0.315271D-03  0.332129D-04 -0.772781D-05 -0.111789D-03 -0.156667D-02
     31  0.874033D-04  0.772445D-03 -0.715567D-03 -0.404395D-04 -0.147083D-03
     32  0.102191D-03  0.131300D-02 -0.814838D-03  0.122378D-04 -0.788825D-04
     33  0.372422D-04  0.740285D-04 -0.182387D-03  0.780837D-03  0.128606D-04
     34 -0.311172D-03 -0.169698D-02 -0.139340D-02  0.118660D-03 -0.116199D-02
     35 -0.267006D-03 -0.813490D-03  0.242969D-02 -0.300023D-03 -0.546176D-03
     36  0.315159D-03 -0.191747D-03  0.140093D-03 -0.667502D-03  0.641321D-03
     37 -0.860435D-03  0.196868D-02 -0.214226D-02  0.802357D-04 -0.105392D-02
     38  0.555564D-04  0.299083D-03  0.385356D-04  0.525305D-04 -0.121174D-02
     39  0.331381D-03  0.264656D-03 -0.311094D-03 -0.148955D-03  0.173259D-02
               26            27            28            29            30 
     26  0.519695D-01
     27 -0.465743D-02  0.233270D+00
     28  0.123332D-02  0.975933D-04  0.127466D+00
     29 -0.915655D-03 -0.861105D-03 -0.845260D-01  0.195030D+00
     30  0.196051D-02 -0.282074D-03  0.609766D-02 -0.132974D-01  0.489013D-01
     31  0.136231D-03 -0.102215D-03 -0.698494D-02  0.456860D-02 -0.188409D-03
     32  0.233478D-03 -0.813731D-04  0.433373D-02  0.512216D-02  0.830860D-04
     33  0.755323D-04  0.878550D-04  0.224211D-03 -0.138720D-02 -0.316149D-02
     34 -0.508753D-03  0.116148D-03  0.176565D-01  0.108038D-01  0.121323D-03
     35  0.137739D-02  0.632457D-04 -0.181470D-01 -0.381312D-01  0.422932D-02
     36 -0.983921D-03  0.174234D-03  0.860826D-03  0.520967D-02  0.734654D-02
     37  0.132026D-02  0.700559D-03 -0.210283D-02  0.401061D-01 -0.862350D-03
     38  0.100254D-02  0.177900D-03 -0.698445D-01 -0.176089D-01 -0.141781D-02
     39 -0.239013D-02  0.573885D-03  0.300760D-02 -0.161274D-02 -0.199382D-01
               31            32            33            34            35 
     31  0.187565D+00
     32 -0.171396D+00  0.377125D+00
     33  0.226059D-01 -0.351374D-01 -0.106741D-01
     34 -0.101936D-02 -0.327392D-03  0.682557D-03  0.272020D+00
     35  0.394856D-03  0.168100D-02  0.798870D-03  0.147490D+00  0.277997D+00
     36  0.173975D-03 -0.334470D-03 -0.159428D-02  0.206475D+00  0.272903D-01
     37 -0.306180D-02 -0.245317D-01 -0.309165D-02 -0.856434D-02  0.516680D-02
     38 -0.176168D-01 -0.253147D-01 -0.140717D-02  0.599957D-02 -0.113144D-01
     39 -0.251320D-02 -0.109467D-02  0.223387D-01  0.136821D-02  0.331031D-02
               36            37            38            39 
     36  0.351985D+00
     37  0.307027D-02  0.259642D-01
     38  0.348390D-03  0.681696D-01  0.109700D+00
     39 -0.104570D-01  0.139750D-01 -0.279183D-01 -0.984166D-01
 FormGI is forming the generalized inverse of G from B-inverse, IUseBI=4.
 Leave Link  716 at Wed Apr 13 07:58:40 2016, MaxMem=    33554432 cpu:         0.0
 (Enter /usr/local/gau/g09/l103.exe)

 GradGradGradGradGradGradGradGradGradGradGradGradGradGradGradGradGradGrad
 Berny optimization.
 Red2BG is reusing G-inverse.
 Internal  Forces:  Max     0.096623798 RMS     0.023984859
 Search for a saddle point.
 Step number   1 out of a maximum of   63
 All quantities printed in internal units (Hartrees-Bohrs-Radians)
 Swapping is turned off.
 Second derivative matrix not updated -- analytic derivatives used.
 ITU=  0
     Eigenvalues ---   -0.08512  -0.05271  -0.01278   0.00177   0.00298
     Eigenvalues ---    0.00528   0.01159   0.02377   0.04966   0.06303
     Eigenvalues ---    0.06376   0.07240   0.10932   0.12741   0.13699
     Eigenvalues ---    0.13770   0.15370   0.15895   0.16478   0.18161
     Eigenvalues ---    0.20764   0.24799   0.28573   0.32839   0.33049
     Eigenvalues ---    0.34537   0.35744   0.36391   0.46193   0.47286
     Eigenvalues ---    0.49408   0.52724   0.60422
 Eigenvectors required to have negative eigenvalues:
                          D6        A22       A21       R6        D3
   1                    0.40799   0.40354  -0.39638  -0.36146   0.32465
                          A17       A20       D2        A14       D14
   1                    0.31685   0.23913  -0.15237   0.15053   0.08833
 Eigenvalue     2 is  -5.27D-02 should be greater than     0.000000 Eigenvector:
                          R6        A17       D6        A20       A22
   1                   -0.47274   0.42446  -0.34482   0.33492  -0.27542
                          A21       D3        A14       R13       A15
   1                    0.26701  -0.23447   0.21595  -0.13987  -0.12641
 Eigenvalue     3 is  -1.28D-02 should be greater than     0.000000 Eigenvector:
                          D5        D4        D2        D1        D6
   1                    0.48013   0.44712   0.40542   0.37241   0.32290
                          D3        A22       A21       D16       D18
   1                    0.24819  -0.21723   0.12422   0.09315   0.08471
 RFO step:  Lambda0=2.546226293D-02 Lambda=-1.39978944D-01.
 Linear search not attempted -- option 19 set.
 Maximum step size (   0.300) exceeded in Quadratic search.
    -- Step size scaled by   0.295
 Iteration  1 RMS(Cart)=  0.06021115 RMS(Int)=  0.00623919
 Iteration  2 RMS(Cart)=  0.00856734 RMS(Int)=  0.00336003
 Iteration  3 RMS(Cart)=  0.00007017 RMS(Int)=  0.00335970
 Iteration  4 RMS(Cart)=  0.00000082 RMS(Int)=  0.00335970
 ITry= 1 IFail=0 DXMaxC= 3.39D-01 DCOld= 1.00D+10 DXMaxT= 3.00D-01 DXLimC= 3.00D+00 Rises=F
 Variable       Old X    -DE/DX   Delta X   Delta X   Delta X     New X
                                 (Linear)    (Quad)   (Total)
    R1        1.89636   0.00023   0.00000  -0.00016  -0.00016   1.89620
    R2        2.63279   0.07095   0.00000   0.01349   0.01349   2.64628
    R3        1.89992   0.01017   0.00000  -0.00146  -0.00146   1.89846
    R4        2.84087   0.00051   0.00000   0.00020   0.00020   2.84107
    R5        2.54221   0.01857   0.00000   0.00061  -0.00569   2.53652
    R6        2.37865   0.09662   0.00000   0.12326   0.12487   2.50352
    R7        1.85600  -0.00118   0.00000  -0.00015  -0.00015   1.85585
    R8        2.07561   0.00036   0.00000   0.00046   0.00046   2.07608
    R9        2.06050  -0.00073   0.00000   0.00004   0.00004   2.06053
   R10        2.07718   0.00027   0.00000  -0.00013  -0.00013   2.07704
   R11        2.73555  -0.05788   0.00000  -0.03751  -0.03751   2.69805
   R12        2.64885  -0.01119   0.00000  -0.01299  -0.01299   2.63586
   R13        2.37807   0.01784   0.00000   0.03850   0.04343   2.42150
    A1        2.10258  -0.01524   0.00000  -0.00954  -0.00964   2.09294
    A2        2.07788  -0.01358   0.00000  -0.00544  -0.00555   2.07233
    A3        2.08053   0.02969   0.00000   0.02019   0.02009   2.10062
    A4        2.03345  -0.02763   0.00000  -0.01591  -0.01579   2.01766
    A5        2.10966   0.03072   0.00000   0.01611   0.00905   2.11872
    A6        1.10814   0.04712   0.00000   0.04154   0.04732   1.15546
    A7        2.14004  -0.00310   0.00000  -0.00048   0.00595   2.14599
    A8        1.93153   0.00011   0.00000  -0.00820  -0.00820   1.92333
    A9        1.93081  -0.00266   0.00000  -0.00027  -0.00029   1.93052
   A10        1.93804  -0.00008   0.00000   0.00882   0.00882   1.94686
   A11        1.88943   0.00091   0.00000  -0.00010  -0.00012   1.88931
   A12        1.87473   0.00083   0.00000   0.00024   0.00025   1.87499
   A13        1.89759   0.00104   0.00000  -0.00057  -0.00058   1.89701
   A14        2.05881  -0.02310   0.00000  -0.04024  -0.04592   2.01288
   A15        2.16418  -0.00815   0.00000   0.00325   0.00926   2.17344
   A16        2.06019   0.03127   0.00000   0.03697   0.03664   2.09683
   A17        1.05167  -0.05991   0.00000  -0.08991  -0.08330   0.96837
   A18        1.93088  -0.00353   0.00000   0.00938   0.00938   1.94025
   A19        3.14159   0.01950   0.00000   0.02563   0.03154   3.17312
   A20        3.11186  -0.02864   0.00000  -0.05294  -0.04666   3.06520
   A21        3.04295  -0.00534   0.00000  -0.15467  -0.14837   2.89458
   A22        3.14376   0.00902   0.00000   0.17210   0.18070   3.32446
    D1        0.10954  -0.00173   0.00000  -0.07103  -0.06942   0.04012
    D2       -3.04060  -0.00396   0.00000  -0.10621  -0.10314   3.13944
    D3       -2.93341   0.00360   0.00000   0.08364   0.07894  -2.85446
    D4        3.02427   0.00097   0.00000  -0.04541  -0.04379   2.98048
    D5       -0.12587  -0.00126   0.00000  -0.08058  -0.07751  -0.20338
    D6       -0.01868   0.00631   0.00000   0.10926   0.10458   0.08590
    D7        1.03078  -0.00053   0.00000  -0.01595  -0.01523   1.01555
    D8        3.12490  -0.00105   0.00000  -0.02161  -0.02087   3.10402
    D9       -1.04963  -0.00158   0.00000  -0.01662  -0.01587  -1.06550
   D10       -2.10210   0.00156   0.00000   0.01980   0.01906  -2.08304
   D11       -0.00799   0.00103   0.00000   0.01415   0.01342   0.00543
   D12        2.10067   0.00051   0.00000   0.01914   0.01842   2.11909
   D13        0.11445  -0.00178   0.00000   0.03321   0.03450   0.14895
   D14       -3.03040   0.00272   0.00000   0.02700   0.03011  -3.00029
   D15       -3.03622  -0.00425   0.00000  -0.00423  -0.00185  -3.03807
   D16        0.10211   0.00025   0.00000  -0.01043  -0.00624   0.09588
   D17       -2.06781  -0.00545   0.00000  -0.01229  -0.01310  -2.08091
   D18        1.07053  -0.00103   0.00000  -0.01864  -0.01783   1.05270
         Item               Value     Threshold  Converged?
 Maximum Force            0.096624     0.000450     NO 
 RMS     Force            0.023985     0.000300     NO 
 Maximum Displacement     0.338821     0.001800     NO 
 RMS     Displacement     0.061626     0.001200     NO 
 Predicted change in Energy=-3.508591D-02
 Lowest energy point so far.  Saving SCF results.
 GradGradGradGradGradGradGradGradGradGradGradGradGradGradGradGradGradGrad

 Leave Link  103 at Wed Apr 13 07:58:40 2016, MaxMem=    33554432 cpu:         0.0
 (Enter /usr/local/gau/g09/l202.exe)
                          Input orientation:                          
 ---------------------------------------------------------------------
 Center     Atomic      Atomic             Coordinates (Angstroms)
 Number     Number       Type             X           Y           Z
 ---------------------------------------------------------------------
      1          7           0        1.080822    1.273660    0.160228
      2          1           0        2.082412    1.333370    0.149260
      3          6           0        0.455142    0.022085    0.104862
      4          1           0       -2.138116   -1.457925   -0.555973
      5          6           0        1.377437   -1.165053    0.085568
      6          6           0       -0.882149   -0.092383    0.120193
      7          1           0        2.020018   -1.160704    0.976647
      8          1           0        0.806954   -2.094283    0.080504
      9          1           0        2.035322   -1.150846   -0.794806
     10          8           0       -1.601671    1.135313    0.003959
     11          1           0        0.545449    2.114812    0.037312
     12          8           0       -1.571076   -1.300213    0.230195
     13          1           0       -0.350740    1.035467   -0.175700
 ---------------------------------------------------------------------
                    Distance matrix (angstroms):
                    1          2          3          4          5
     1  N    0.000000
     2  H    1.003428   0.000000
     3  C    1.400351   2.090322   0.000000
     4  H    4.282063   5.108966   3.058123   0.000000
     5  C    2.457819   2.596759   1.503428   3.585591   0.000000
     6  C    2.391847   3.289717   1.342268   1.974680   2.501510
     7  H    2.734001   2.628472   2.146588   4.441548   1.098613
     8  H    3.380000   3.657912   2.145548   3.079528   1.090388
     9  H    2.775137   2.657970   2.163824   4.191530   1.099123
    10  O    2.690600   3.692263   2.340926   2.706692   3.764761
    11  H    1.004624   1.727842   2.095764   4.507545   3.384087
    12  O    3.696253   4.504474   2.422754   0.982073   2.955151
    13  H    1.489615   2.472766   1.324804   3.091331   2.810186
                    6          7          8          9         10
     6  C    0.000000
     7  H    3.208956   0.000000
     8  H    2.619590   1.773743   0.000000
     9  H    3.235615   1.771546   1.779080   0.000000
    10  O    1.427746   4.397095   4.029593   4.369469   0.000000
    11  H    2.629945   3.712911   4.217431   3.684652   2.360223
    12  O    1.394839   3.670506   2.511570   3.752205   2.446202
    13  H    1.281403   3.430972   3.346824   3.294927   1.267704
                   11         12         13
    11  H    0.000000
    12  O    4.022347   0.000000
    13  H    1.418983   2.666341   0.000000
 Stoichiometry    C3H7NO2
 Framework group  C1[X(C3H7NO2)]
 Deg. of freedom    33
 Full point group                 C1      NOp   1
 RotChk:  IX=0 Diff= 4.38D-02
 Largest Abelian subgroup         C1      NOp   1
 Largest concise Abelian subgroup C1      NOp   1
                         Standard orientation:                         
 ---------------------------------------------------------------------
 Center     Atomic      Atomic             Coordinates (Angstroms)
 Number     Number       Type             X           Y           Z
 ---------------------------------------------------------------------
      1          7           0        1.359682   -1.160930   -0.066637
      2          1           0        2.361720   -1.115363   -0.039953
      3          6           0        0.604985    0.016783   -0.000251
      4          1           0       -2.139158    1.203677    0.642459
      5          6           0        1.396812    1.293605    0.054844
      6          6           0       -0.736550   -0.009495   -0.035968
      7          1           0        2.049415    1.373521   -0.825311
      8          1           0        0.731676    2.157553    0.066328
      9          1           0        2.039418    1.331957    0.945719
     10          8           0       -1.324491   -1.307910    0.047120
     11          1           0        0.914060   -2.055800    0.032848
     12          8           0       -1.547080    1.121198   -0.136712
     13          1           0       -0.093820   -1.080702    0.249354
 ---------------------------------------------------------------------
 Rotational constants (GHZ):      4.7939341      3.3981592      2.0283977
 Leave Link  202 at Wed Apr 13 07:58:40 2016, MaxMem=    33554432 cpu:         0.0
 (Enter /usr/local/gau/g09/l301.exe)
 Standard basis: 6-31G (6D, 7F)
 Ernie: Thresh=  0.10000D-02 Tol=  0.10000D-05 Strict=F.
 There are    68 symmetry adapted cartesian basis functions of A   symmetry.
 There are    68 symmetry adapted basis functions of A   symmetry.
    68 basis functions,   160 primitive gaussians,    68 cartesian basis functions
    24 alpha electrons       24 beta electrons
       nuclear repulsion energy       248.6694117025 Hartrees.
 IExCor=  402 DFT=T Ex+Corr=B3LYP ExCW=0 ScaHFX=  0.200000
 ScaDFX=  0.800000  0.720000  1.000000  0.810000 ScalE2=  1.000000  1.000000
 IRadAn=      0 IRanWt=     -1 IRanGd=            0 ICorTp=0 IEmpDi=  4
 NAtoms=   13 NActive=   13 NUniq=   13 SFac= 1.00D+00 NAtFMM=   60 NAOKFM=F Big=F
 Integral buffers will be    131072 words long.
 Raffenetti 2 integral format.
 Two-electron integral symmetry is turned on.
 Leave Link  301 at Wed Apr 13 07:58:40 2016, MaxMem=    33554432 cpu:         0.0
 (Enter /usr/local/gau/g09/l302.exe)
 NPDir=0 NMtPBC=     1 NCelOv=     1 NCel=       1 NClECP=     1 NCelD=      1
         NCelK=      1 NCelE2=     1 NClLst=     1 CellRange=     0.0.
 One-electron integrals computed using PRISM.
 NBasis=    68 RedAO= T EigKep=  2.80D-03  NBF=    68
 NBsUse=    68 1.00D-06 EigRej= -1.00D+00 NBFU=    68
 Precomputing XC quadrature grid using
 IXCGrd= 4 IRadAn=           0 IRanWt=          -1 IRanGd=           0 AccXCQ= 0.00D+00.
 Generated NRdTot=       0 NPtTot=           0 NUsed=           0 NTot=          32
 NSgBfM=    68    68    68    68    68 MxSgAt=    13 MxSgA2=    13.
 Leave Link  302 at Wed Apr 13 07:58:40 2016, MaxMem=    33554432 cpu:         0.3
 (Enter /usr/local/gau/g09/l303.exe)
 DipDrv:  MaxL=1.
 Leave Link  303 at Wed Apr 13 07:58:40 2016, MaxMem=    33554432 cpu:         0.0
 (Enter /usr/local/gau/g09/l401.exe)
 Initial guess from the checkpoint file:  "Ala-S-opt-freq-tsa3-6-31g.chk"
 B after Tr=     0.000000    0.000000    0.000000
         Rot=    0.999873    0.000019   -0.000232   -0.015945 Ang=   1.83 deg.
 Guess basis will be translated and rotated to current coordinates.
 JPrj=2 DoOrth=T DoCkMO=T.
 Generating alternative initial guess.
 ExpMin= 1.61D-01 ExpMax= 5.48D+03 ExpMxC= 8.25D+02 IAcc=1 IRadAn=         1 AccDes= 0.00D+00
 Harris functional with IExCor=  402 and IRadAn=       1 diagonalized for initial guess.
 HarFok:  IExCor=  402 AccDes= 0.00D+00 IRadAn=         1 IDoV= 1 UseB2=F ITyADJ=14
 ICtDFT=  3500011 ScaDFX=  1.000000  1.000000  1.000000  1.000000
 FoFCou: FMM=F IPFlag=           0 FMFlag=      100000 FMFlg1=           0
         NFxFlg=           0 DoJE=T BraDBF=F KetDBF=T FulRan=T
         wScrn=  0.000000 ICntrl=     500 IOpCl=  0 I1Cent=   200000004 NGrid=           0
         NMat0=    1 NMatS0=      1 NMatT0=    0 NMatD0=    1 NMtDS0=    0 NMtDT0=    0
 Petite list used in FoFCou.
 Harris En= -323.478614599001    
 Leave Link  401 at Wed Apr 13 07:58:41 2016, MaxMem=    33554432 cpu:         0.6
 (Enter /usr/local/gau/g09/l502.exe)
 Closed shell SCF:
 Using DIIS extrapolation, IDIIS=  1040.
 Integral symmetry usage will be decided dynamically.
 Keep R1 ints in memory in canonical form, NReq=3676491.
 IVT=       33364 IEndB=       33364 NGot=    33554432 MDV=    30768038
 LenX=    30768038 LenY=    30762973
 Requested convergence on RMS density matrix=1.00D-08 within 128 cycles.
 Requested convergence on MAX density matrix=1.00D-06.
 Requested convergence on             energy=1.00D-06.
 No special actions if energy rises.
 FoFCou: FMM=F IPFlag=           0 FMFlag=           0 FMFlg1=           0
         NFxFlg=           0 DoJE=F BraDBF=F KetDBF=F FulRan=T
         wScrn=  0.000000 ICntrl=     600 IOpCl=  0 I1Cent=           0 NGrid=           0
         NMat0=    1 NMatS0=   2346 NMatT0=    0 NMatD0=    1 NMtDS0=    0 NMtDT0=    0
 Symmetry not used in FoFCou.
 Integral accuracy reduced to 1.0D-05 until final iterations.

 Cycle   1  Pass 0  IDiag  1:
 E= -323.413531808476    
 DIIS: error= 6.98D-03 at cycle   1 NSaved=   1.
 NSaved= 1 IEnMin= 1 EnMin= -323.413531808476     IErMin= 1 ErrMin= 6.98D-03
 ErrMax= 6.98D-03  0.00D+00 EMaxC= 1.00D-01 BMatC= 7.32D-03 BMatP= 7.32D-03
 IDIUse=3 WtCom= 9.30D-01 WtEn= 6.98D-02
 Coeff-Com:  0.100D+01
 Coeff-En:   0.100D+01
 Coeff:      0.100D+01
 Gap=     0.622 Goal=   None    Shift=    0.000
 GapD=    0.622 DampG=2.000 DampE=1.000 DampFc=2.0000 IDamp=-1.
 RMSDP=4.78D-03 MaxDP=7.50D-02              OVMax= 3.18D-02

 Cycle   2  Pass 0  IDiag  1:
 E= -323.424679007874     Delta-E=       -0.011147199398 Rises=F Damp=F
 DIIS: error= 8.17D-03 at cycle   2 NSaved=   2.
 NSaved= 2 IEnMin= 2 EnMin= -323.424679007874     IErMin= 1 ErrMin= 6.98D-03
 ErrMax= 8.17D-03  0.00D+00 EMaxC= 1.00D-01 BMatC= 3.33D-03 BMatP= 7.32D-03
 IDIUse=3 WtCom= 9.18D-01 WtEn= 8.17D-02
 Coeff-Com:  0.341D+00 0.659D+00
 Coeff-En:   0.000D+00 0.100D+01
 Coeff:      0.313D+00 0.687D+00
 Gap=     0.220 Goal=   None    Shift=    0.000
 RMSDP=2.14D-03 MaxDP=2.83D-02 DE=-1.11D-02 OVMax= 5.06D-02

 Cycle   3  Pass 0  IDiag  1:
 E= -323.422071041763     Delta-E=        0.002607966111 Rises=F Damp=F
 DIIS: error= 1.19D-02 at cycle   3 NSaved=   3.
 NSaved= 3 IEnMin= 2 EnMin= -323.424679007874     IErMin= 1 ErrMin= 6.98D-03
 ErrMax= 1.19D-02  0.00D+00 EMaxC= 1.00D-01 BMatC= 6.26D-03 BMatP= 3.33D-03
 IDIUse=2 WtCom= 0.00D+00 WtEn= 1.00D+00
 Coeff-En:   0.000D+00 0.614D+00 0.386D+00
 Coeff:      0.000D+00 0.614D+00 0.386D+00
 Gap=     0.220 Goal=   None    Shift=    0.000
 RMSDP=1.19D-03 MaxDP=1.51D-02 DE= 2.61D-03 OVMax= 2.69D-02

 Cycle   4  Pass 0  IDiag  1:
 E= -323.427488048144     Delta-E=       -0.005417006380 Rises=F Damp=F
 DIIS: error= 1.52D-03 at cycle   4 NSaved=   4.
 NSaved= 4 IEnMin= 4 EnMin= -323.427488048144     IErMin= 4 ErrMin= 1.52D-03
 ErrMax= 1.52D-03  0.00D+00 EMaxC= 1.00D-01 BMatC= 9.96D-05 BMatP= 3.33D-03
 IDIUse=3 WtCom= 9.85D-01 WtEn= 1.52D-02
 Coeff-Com: -0.213D-01 0.262D+00 0.120D+00 0.639D+00
 Coeff-En:   0.000D+00 0.000D+00 0.000D+00 0.100D+01
 Coeff:     -0.209D-01 0.258D+00 0.118D+00 0.645D+00
 Gap=     0.220 Goal=   None    Shift=    0.000
 RMSDP=1.69D-04 MaxDP=1.95D-03 DE=-5.42D-03 OVMax= 4.33D-03

 Cycle   5  Pass 0  IDiag  1:
 E= -323.427569965418     Delta-E=       -0.000081917274 Rises=F Damp=F
 DIIS: error= 2.92D-04 at cycle   5 NSaved=   5.
 NSaved= 5 IEnMin= 5 EnMin= -323.427569965418     IErMin= 5 ErrMin= 2.92D-04
 ErrMax= 2.92D-04  0.00D+00 EMaxC= 1.00D-01 BMatC= 4.17D-06 BMatP= 9.96D-05
 IDIUse=3 WtCom= 9.97D-01 WtEn= 2.92D-03
 Coeff-Com: -0.408D-02 0.311D-01-0.117D-01 0.355D+00 0.630D+00
 Coeff-En:   0.000D+00 0.000D+00 0.000D+00 0.000D+00 0.100D+01
 Coeff:     -0.406D-02 0.310D-01-0.117D-01 0.354D+00 0.631D+00
 Gap=     0.220 Goal=   None    Shift=    0.000
 RMSDP=4.77D-05 MaxDP=4.71D-04 DE=-8.19D-05 OVMax= 1.10D-03

 Cycle   6  Pass 0  IDiag  1:
 E= -323.427573421243     Delta-E=       -0.000003455825 Rises=F Damp=F
 DIIS: error= 1.10D-04 at cycle   6 NSaved=   6.
 NSaved= 6 IEnMin= 6 EnMin= -323.427573421243     IErMin= 6 ErrMin= 1.10D-04
 ErrMax= 1.10D-04  0.00D+00 EMaxC= 1.00D-01 BMatC= 4.53D-07 BMatP= 4.17D-06
 IDIUse=3 WtCom= 9.99D-01 WtEn= 1.10D-03
 Coeff-Com: -0.116D-02 0.345D-02-0.143D-01 0.169D+00 0.376D+00 0.467D+00
 Coeff-En:   0.000D+00 0.000D+00 0.000D+00 0.000D+00 0.413D-01 0.959D+00
 Coeff:     -0.116D-02 0.344D-02-0.142D-01 0.168D+00 0.376D+00 0.468D+00
 Gap=     0.220 Goal=   None    Shift=    0.000
 RMSDP=1.24D-05 MaxDP=2.10D-04 DE=-3.46D-06 OVMax= 3.30D-04

 Cycle   7  Pass 0  IDiag  1:
 E= -323.427573887009     Delta-E=       -0.000000465767 Rises=F Damp=F
 DIIS: error= 1.69D-05 at cycle   7 NSaved=   7.
 NSaved= 7 IEnMin= 7 EnMin= -323.427573887009     IErMin= 7 ErrMin= 1.69D-05
 ErrMax= 1.69D-05  0.00D+00 EMaxC= 1.00D-01 BMatC= 2.32D-08 BMatP= 4.53D-07
 IDIUse=1 WtCom= 1.00D+00 WtEn= 0.00D+00
 Coeff-Com:  0.158D-03-0.375D-02-0.525D-02 0.167D-01 0.684D-01 0.189D+00
 Coeff-Com:  0.735D+00
 Coeff:      0.158D-03-0.375D-02-0.525D-02 0.167D-01 0.684D-01 0.189D+00
 Coeff:      0.735D+00
 Gap=     0.220 Goal=   None    Shift=    0.000
 RMSDP=3.62D-06 MaxDP=3.79D-05 DE=-4.66D-07 OVMax= 4.06D-05

 Initial convergence to 1.0D-05 achieved.  Increase integral accuracy.
 Cycle   8  Pass 1  IDiag  1:
 E= -323.427611709602     Delta-E=       -0.000037822592 Rises=F Damp=F
 DIIS: error= 1.02D-05 at cycle   1 NSaved=   1.
 NSaved= 1 IEnMin= 1 EnMin= -323.427611709602     IErMin= 1 ErrMin= 1.02D-05
 ErrMax= 1.02D-05  0.00D+00 EMaxC= 1.00D-01 BMatC= 1.13D-08 BMatP= 1.13D-08
 IDIUse=1 WtCom= 1.00D+00 WtEn= 0.00D+00
 Coeff-Com:  0.100D+01
 Coeff:      0.100D+01
 Gap=     0.220 Goal=   None    Shift=    0.000
 RMSDP=3.62D-06 MaxDP=3.79D-05 DE=-3.78D-05 OVMax= 6.87D-05

 Cycle   9  Pass 1  IDiag  1:
 E= -323.427611722969     Delta-E=       -0.000000013367 Rises=F Damp=F
 DIIS: error= 8.53D-06 at cycle   2 NSaved=   2.
 NSaved= 2 IEnMin= 2 EnMin= -323.427611722969     IErMin= 2 ErrMin= 8.53D-06
 ErrMax= 8.53D-06  0.00D+00 EMaxC= 1.00D-01 BMatC= 6.93D-09 BMatP= 1.13D-08
 IDIUse=1 WtCom= 1.00D+00 WtEn= 0.00D+00
 Coeff-Com:  0.418D+00 0.582D+00
 Coeff:      0.418D+00 0.582D+00
 Gap=     0.220 Goal=   None    Shift=    0.000
 RMSDP=1.68D-06 MaxDP=3.35D-05 DE=-1.34D-08 OVMax= 4.95D-05

 Cycle  10  Pass 1  IDiag  1:
 E= -323.427611727639     Delta-E=       -0.000000004670 Rises=F Damp=F
 DIIS: error= 7.55D-06 at cycle   3 NSaved=   3.
 NSaved= 3 IEnMin= 3 EnMin= -323.427611727639     IErMin= 3 ErrMin= 7.55D-06
 ErrMax= 7.55D-06  0.00D+00 EMaxC= 1.00D-01 BMatC= 1.96D-09 BMatP= 6.93D-09
 IDIUse=1 WtCom= 1.00D+00 WtEn= 0.00D+00
 Coeff-Com:  0.374D-01 0.340D+00 0.623D+00
 Coeff:      0.374D-01 0.340D+00 0.623D+00
 Gap=     0.220 Goal=   None    Shift=    0.000
 RMSDP=1.06D-06 MaxDP=1.65D-05 DE=-4.67D-09 OVMax= 3.35D-05

 Cycle  11  Pass 1  IDiag  1:
 E= -323.427611728974     Delta-E=       -0.000000001335 Rises=F Damp=F
 DIIS: error= 4.33D-06 at cycle   4 NSaved=   4.
 NSaved= 4 IEnMin= 4 EnMin= -323.427611728974     IErMin= 4 ErrMin= 4.33D-06
 ErrMax= 4.33D-06  0.00D+00 EMaxC= 1.00D-01 BMatC= 6.86D-10 BMatP= 1.96D-09
 IDIUse=1 WtCom= 1.00D+00 WtEn= 0.00D+00
 Coeff-Com: -0.189D-01 0.180D+00 0.446D+00 0.394D+00
 Coeff:     -0.189D-01 0.180D+00 0.446D+00 0.394D+00
 Gap=     0.220 Goal=   None    Shift=    0.000
 RMSDP=4.83D-07 MaxDP=6.22D-06 DE=-1.33D-09 OVMax= 1.13D-05

 Cycle  12  Pass 1  IDiag  1:
 E= -323.427611729599     Delta-E=       -0.000000000625 Rises=F Damp=F
 DIIS: error= 4.76D-07 at cycle   5 NSaved=   5.
 NSaved= 5 IEnMin= 5 EnMin= -323.427611729599     IErMin= 5 ErrMin= 4.76D-07
 ErrMax= 4.76D-07  0.00D+00 EMaxC= 1.00D-01 BMatC= 2.34D-11 BMatP= 6.86D-10
 IDIUse=1 WtCom= 1.00D+00 WtEn= 0.00D+00
 Coeff-Com: -0.138D-01 0.904D-01 0.239D+00 0.236D+00 0.448D+00
[...]
   A11        1.88669   0.00000   0.00000  -0.00003  -0.00003   1.88665
   A12        1.87442   0.00000   0.00000   0.00002   0.00002   1.87445
   A13        1.90042   0.00000   0.00000   0.00001   0.00001   1.90044
   A14        2.08744   0.00001   0.00000  -0.00003  -0.00003   2.08741
   A15        2.05684  -0.00001   0.00000  -0.00005  -0.00005   2.05679
   A16        2.04435   0.00000   0.00000   0.00003   0.00003   2.04439
   A17        1.02893   0.00001   0.00000  -0.00012  -0.00012   1.02881
   A18        1.87718   0.00001   0.00000   0.00008   0.00008   1.87727
   A19        3.79256   0.00000   0.00000  -0.00006  -0.00006   3.79250
   A20        3.07329   0.00001   0.00000  -0.00008  -0.00008   3.07320
   A21        2.63079   0.00000   0.00000  -0.00001  -0.00001   2.63077
   A22        4.37957   0.00000   0.00000   0.00002   0.00002   4.37960
    D1        0.16941   0.00000   0.00000  -0.00055  -0.00055   0.16886
    D2       -2.92915   0.00000   0.00000  -0.00044  -0.00044  -2.92959
    D3       -2.46138   0.00000   0.00000  -0.00054  -0.00054  -2.46192
    D4       -3.00422   0.00000   0.00000  -0.00003  -0.00003  -3.00425
    D5        0.18041   0.00000   0.00000   0.00009   0.00009   0.18049
    D6        0.64818   0.00000   0.00000  -0.00001  -0.00001   0.64817
    D7        1.16265   0.00000   0.00000   0.00056   0.00056   1.16321
    D8       -3.03807   0.00000   0.00000   0.00054   0.00054  -3.03753
    D9       -0.92087   0.00000   0.00000   0.00053   0.00053  -0.92033
   D10       -2.02491   0.00000   0.00000   0.00044   0.00044  -2.02447
   D11        0.05756   0.00000   0.00000   0.00041   0.00041   0.05797
   D12        2.17476   0.00000   0.00000   0.00041   0.00041   2.17517
   D13       -0.13282   0.00000   0.00000  -0.00009  -0.00009  -0.13290
   D14       -2.80838   0.00000   0.00000   0.00002   0.00002  -2.80836
   D15        3.05332   0.00000   0.00000   0.00003   0.00003   3.05336
   D16        0.37777   0.00001   0.00000   0.00014   0.00014   0.37790
   D17        3.03396   0.00000   0.00000   0.00019   0.00019   3.03415
   D18        0.34687   0.00000   0.00000   0.00031   0.00031   0.34717
         Item               Value     Threshold  Converged?
 Maximum Force            0.000013     0.000450     YES
 RMS     Force            0.000005     0.000300     YES
 Maximum Displacement     0.000743     0.001800     YES
 RMS     Displacement     0.000220     0.001200     YES
 Predicted change in Energy=-3.772426D-09
 Optimization completed.
    -- Stationary point found.
                           ----------------------------
                           !   Optimized Parameters   !
                           ! (Angstroms and Degrees)  !
 --------------------------                            --------------------------
 ! Name  Definition              Value          Derivative Info.                !
 --------------------------------------------------------------------------------
 ! R1    R(1,2)                  1.0057         -DE/DX =    0.0                 !
 ! R2    R(1,3)                  1.3599         -DE/DX =    0.0                 !
 ! R3    R(1,11)                 1.0126         -DE/DX =    0.0                 !
 ! R4    R(3,5)                  1.4962         -DE/DX =    0.0                 !
 ! R5    R(3,6)                  1.397          -DE/DX =    0.0                 !
 ! R6    R(3,13)                 2.1525         -DE/DX =    0.0                 !
 ! R7    R(4,12)                 0.9772         -DE/DX =    0.0                 !
 ! R8    R(5,7)                  1.0985         -DE/DX =    0.0                 !
 ! R9    R(5,8)                  1.0901         -DE/DX =    0.0                 !
 ! R10   R(5,9)                  1.099          -DE/DX =    0.0                 !
 ! R11   R(6,10)                 1.4713         -DE/DX =    0.0                 !
 ! R12   R(6,12)                 1.4111         -DE/DX =    0.0                 !
 ! R13   R(6,13)                 1.2188         -DE/DX =    0.0                 !
 ! A1    A(2,1,3)              122.5188         -DE/DX =    0.0                 !
 ! A2    A(2,1,11)             120.4974         -DE/DX =    0.0                 !
 ! A3    A(3,1,11)             116.9582         -DE/DX =    0.0                 !
 ! A4    A(1,3,5)              120.0187         -DE/DX =    0.0                 !
 ! A5    A(1,3,6)              116.6973         -DE/DX =    0.0                 !
 ! A6    A(1,3,13)              97.2791         -DE/DX =    0.0                 !
 ! A7    A(5,3,6)              123.2349         -DE/DX =    0.0                 !
 ! A8    A(3,5,7)              110.2462         -DE/DX =    0.0                 !
 ! A9    A(3,5,8)              110.3147         -DE/DX =    0.0                 !
 ! A10   A(3,5,9)              111.7804         -DE/DX =    0.0                 !
 ! A11   A(7,5,8)              108.0993         -DE/DX =    0.0                 !
 ! A12   A(7,5,9)              107.3966         -DE/DX =    0.0                 !
 ! A13   A(8,5,9)              108.8863         -DE/DX =    0.0                 !
 ! A14   A(3,6,10)             119.6013         -DE/DX =    0.0                 !
 ! A15   A(3,6,12)             117.8483         -DE/DX =    0.0                 !
 ! A16   A(10,6,12)            117.1329         -DE/DX =    0.0                 !
 ! A17   A(10,6,13)             58.9535         -DE/DX =    0.0                 !
 ! A18   A(4,12,6)             107.5546         -DE/DX =    0.0                 !
 ! A19   L(5,3,13,1,-1)        217.2978         -DE/DX =    0.0                 !
 ! A20   L(12,6,13,10,-1)      176.0864         -DE/DX =    0.0                 !
 ! A21   L(5,3,13,1,-2)        150.7329         -DE/DX =    0.0                 !
 ! A22   L(12,6,13,10,-2)      250.9311         -DE/DX =    0.0                 !
 ! D1    D(2,1,3,5)              9.7064         -DE/DX =    0.0                 !
 ! D2    D(2,1,3,6)           -167.8279         -DE/DX =    0.0                 !
 ! D3    D(2,1,3,13)          -141.0265         -DE/DX =    0.0                 !
 ! D4    D(11,1,3,5)          -172.129          -DE/DX =    0.0                 !
 ! D5    D(11,1,3,6)            10.3366         -DE/DX =    0.0                 !
 ! D6    D(11,1,3,13)           37.138          -DE/DX =    0.0                 !
 ! D7    D(1,3,5,7)             66.6151         -DE/DX =    0.0                 !
 ! D8    D(1,3,5,8)           -174.0684         -DE/DX =    0.0                 !
 ! D9    D(1,3,5,9)            -52.7618         -DE/DX =    0.0                 !
 ! D10   D(6,3,5,7)           -116.0186         -DE/DX =    0.0                 !
 ! D11   D(6,3,5,8)              3.2978         -DE/DX =    0.0                 !
 ! D12   D(6,3,5,9)            124.6045         -DE/DX =    0.0                 !
 ! D13   D(1,3,6,10)            -7.6099         -DE/DX =    0.0                 !
 ! D14   D(1,3,6,12)          -160.9081         -DE/DX =    0.0                 !
 ! D15   D(5,3,6,10)           174.9426         -DE/DX =    0.0                 !
 ! D16   D(5,3,6,12)            21.6444         -DE/DX =    0.0                 !
 ! D17   D(3,6,12,4)           173.833          -DE/DX =    0.0                 !
 ! D18   D(10,6,12,4)           19.8739         -DE/DX =    0.0                 !
 --------------------------------------------------------------------------------
 GradGradGradGradGradGradGradGradGradGradGradGradGradGradGradGradGradGrad

 Leave Link  103 at Wed Apr 13 08:10:44 2016, MaxMem=    33554432 cpu:         0.0
 (Enter /usr/local/gau/g09/l9999.exe)

 Test job not archived.
 1\1\GINC-KALI\Freq\RB3LYP\6-31G\C3H7N1O2\ROOT\13-Apr-2016\0\\#P Geom=A
 llCheck Guess=TCheck SCRF=Check Test GenChk RB3LYP/6-31G Freq\\Ala-S-o
 pt-freq-tsa3-6-31g\\0,1\N,1.1364324215,1.2675452537,0.2981563898\H,2.1
 273909815,1.4392544643,0.2961965538\C,0.6088973351,0.0281633523,0.1114
 703219\H,-2.3708766729,-1.1321939907,-0.0264797157\C,1.5014021242,-1.1
 727206629,0.1094585663\C,-0.7663456362,-0.0395586519,-0.1246867932\H,1
 .9333611392,-1.3269751377,1.1075770811\H,0.9344075841,-2.0652217858,-0
 .1558100618\H,2.3364587414,-1.0590156322,-0.5959924451\O,-1.5868456064
 ,1.1746479164,0.006076796\H,0.4826261993,2.0321069508,0.4136997652\O,-
 1.4108710651,-1.2773841073,0.0841845515\H,-1.0662346157,0.6246511812,-
 1.1016022097\\Version=ES64L-G09RevD.01\State=1-A\HF=-323.5135361\RMSD=
 3.733e-09\RMSF=7.795e-06\ZeroPoint=0.101323\Thermal=0.1085864\Dipole=1
 .3466813,-0.025934,-0.308696\DipoleDeriv=-0.6082938,-0.1530486,-0.1362
 752,-0.8613772,-0.7330261,-0.1709951,-0.145958,-0.0044803,-0.7763013,0
 .1858514,0.015632,0.016978,-0.0000323,0.2231867,-0.0356101,0.0738102,-
 0.0265164,0.3938324,0.900355,0.0346168,0.3044718,0.7396028,0.5688181,0
 .201334,0.4256986,0.1414316,0.2582355,0.2314207,0.05952,-0.0241561,0.1
 946416,0.3029058,0.0503565,-0.0550262,0.0367711,0.3801661,0.0759844,0.
 0746486,-0.035006,-0.0591188,-0.0706301,-0.0244923,-0.124369,0.0284789
 ,0.0927496,0.0064773,0.2971499,-0.1860426,0.7875668,0.7241573,-0.09267
 78,-1.2682964,-0.0895067,-0.1917428,-0.0020033,0.0572522,-0.0752387,0.
 0614842,0.0509242,-0.0004289,-0.0937774,0.0254032,-0.0763816,0.0747156
 ,-0.0718088,-0.0207092,-0.0165509,0.0041995,-0.0235217,-0.0120595,-0.0
 430637,0.0966997,-0.1065272,0.0259599,0.1001836,-0.0128123,0.0392226,0
 .049375,0.1411517,0.0013745,0.0038314,-0.9309696,0.151957,-0.1288476,0
 .524622,-0.7361948,0.2001567,0.7958749,-0.1840825,-0.2297815,0.1054215
 ,0.0562017,-0.0194692,0.022253,0.2293914,-0.0049623,-0.055286,-0.00472
 45,0.3692433,-0.5027438,-0.3429488,0.1098016,-0.6481448,-0.8649674,-0.
 0050456,0.3438892,0.0321691,-0.4464598,0.5703117,-0.2051319,0.0943098,
 -0.7321341,0.2620128,-0.1434884,-0.0256521,0.0867455,0.125909\Polar=72
 .3709925,-2.2714645,49.8435825,6.2258461,0.1136916,28.7730474\PG=C01 [
 X(C3H7N1O2)]\NImag=1\\0.89220881,0.00212949,0.75618664,0.00028034,0.10
 664393,0.06610233,-0.45923391,-0.05989173,0.00057121,0.47565584,-0.058
 73260,-0.08417070,-0.01174102,0.07076971,0.07791693,0.00336527,-0.0112
 3443,-0.00854695,-0.00065066,0.01014118,0.00956478,-0.17605262,-0.0817
 6173,-0.01404082,-0.00990637,-0.03953759,-0.00278489,0.74252587,-0.094
 29070,-0.34480293,-0.04215095,0.00103936,-0.00164753,0.00049271,0.0256
 9891,0.70346023,-0.01966901,-0.03411021,-0.04946453,-0.00112163,-0.000
 23965,-0.00277007,0.05587993,0.04181724,0.17573119,0.00069346,0.002725
 93,0.00076141,-0.00001188,-0.00012188,-0.00037254,-0.00139500,-0.00360
 331,-0.00002650,0.47502345,-0.00104041,0.00179656,0.00000490,-0.000232
 50,-0.00047457,-0.00031111,-0.00212094,-0.00870264,0.00050978,-0.04393
 107,0.05391546,-0.00020441,-0.00001468,0.00113030,-0.00008989,-0.00019
 472,0.00069313,-0.00147509,-0.00075421,-0.00054078,0.04858290,-0.01643
 635,0.01089137,0.01391932,-0.01243842,0.00070112,0.00136096,0.00019159
 ,-0.00096369,-0.14354030,0.06357728,-0.00355184,0.00034098,0.00052870,
 0.00047384,0.54686677,0.02427334,-0.03664049,-0.00150770,0.00091930,0.
 00243563,0.00000292,0.05665784,-0.17501245,-0.00384966,0.00014239,-0.0
 0037930,0.00010671,0.05223955,0.54584174,0.00423024,-0.00454986,0.0032
 1719,-0.00040365,0.00094035,-0.00118739,0.00613895,-0.00412827,-0.0727
 5140,0.00015907,-0.00000612,-0.00052169,0.00610181,0.01353361,0.536387
 40,-0.03470696,-0.03339037,-0.01267976,0.00259861,0.00139228,-0.002229
 74,-0.34113630,-0.00812914,-0.03185814,-0.02612844,-0.05163192,0.00766
 679,-0.01566988,0.00971988,-0.01372312,0.63890769,-0.03963129,0.002589
 43,-0.00708333,-0.00121678,-0.00574685,-0.00280365,-0.04111928,-0.0979
 5589,-0.01528490,0.00547540,-0.00796087,0.00004562,0.02552903,0.003782
 43,0.00837222,0.11169322,0.42399627,-0.02824017,-0.05255072,-0.0018925
 3,0.00569761,-0.00006287,0.00643118,0.01953633,0.02847900,-0.04848485,
 -0.00087125,0.00081819,-0.00097863,0.00042750,0.00073418,0.00376193,-0
 .00733202,-0.00862321,0.16530450,0.00087470,-0.00159410,0.00093823,0.0
 0030423,0.00000356,-0.00036546,-0.01254465,0.00590128,-0.02002264,0.00
 008847,0.00012754,-0.00010379,-0.08277080,0.01151396,-0.09143715,-0.00
 050169,0.00322702,-0.00050575,0.09246746,-0.00037143,0.00125305,-0.001
 89849,-0.00018921,-0.00070860,0.00108004,0.01413898,-0.00674031,0.0264
 0880,-0.00011367,-0.00001582,-0.00015094,0.01209244,-0.05212473,0.0310
 5168,0.00044803,-0.00297960,0.00083388,-0.01802714,0.05556092,0.000388
 07,-0.00040370,0.00083719,-0.00003318,0.00039751,-0.00048886,-0.001623
 99,-0.00025984,0.00330982,0.00006631,0.00008266,-0.00006188,-0.0898774
 4,0.02941948,-0.25966799,0.00153680,0.00024564,-0.00077163,0.10114602,
 -0.03420516,0.28530628,-0.00371034,0.00354171,-0.00016196,-0.00017453,
 0.00012243,0.00017010,0.01341085,0.02029751,0.00669466,0.00010585,-0.0
 0036680,0.00001475,-0.12707416,-0.12316822,-0.03663029,0.00014460,0.00
 206105,-0.00139838,-0.00628696,-0.01000911,-0.00180046,0.13671983,0.00
 520398,-0.00246100,-0.00004212,0.00030585,0.00043456,-0.00012168,-0.01
 755964,-0.02448165,-0.00782355,-0.00022446,0.00055486,0.00000395,-0.11
 544322,-0.23375977,-0.05500904,-0.00059993,-0.00178174,0.00170463,0.00
 327331,0.00473366,0.00218300,0.12733058,0.25758260,-0.00010702,0.00010
 730,0.00152925,0.00002915,-0.00001264,-0.00062959,-0.00032658,0.001830
 36,-0.00123387,-0.00016179,0.00024804,-0.00001881,-0.03457273,-0.05636
 223,-0.06635185,0.00001988,-0.00072468,0.00053381,-0.01672233,-0.02631
 165,-0.00729689,0.03981246,0.06087517,0.06803581,0.00187529,-0.0014140
 8,-0.00152013,0.00028060,0.00061867,0.00098646,-0.02273151,0.00057933,
 0.01102957,0.00008653,0.00028802,0.00020201,-0.18906772,-0.02442677,0.
 12350303,0.00361667,0.00143839,0.00163473,0.00942782,0.00122664,-0.009
 13014,-0.01235569,-0.00058396,0.01242899,0.21142775,-0.00034537,0.0021
 7737,0.00122432,-0.00074862,-0.00056142,-0.00054616,0.02784741,0.00122
 740,-0.01888421,-0.00018278,0.00016953,0.00008603,-0.02262633,-0.05373
 242,0.01711258,-0.00280643,-0.00307275,-0.00022907,-0.00359958,-0.0002
 8964,0.00220923,-0.01978913,-0.00172386,0.01970490,0.02104931,0.055937
 47,-0.00032868,-0.00056038,0.00038286,0.00032965,-0.00086714,-0.000261
 78,-0.00216197,0.00092149,0.00266915,-0.00012640,0.00000890,0.00005729
 ,0.12389234,0.01823678,-0.15261122,-0.00073014,-0.00016408,0.00026377,
 0.02487588,0.00478554,-0.02130827,-0.00740796,-0.00109857,0.00575970,-
 0.13799741,-0.02135591,0.16577843,-0.00422965,-0.00537651,-0.00092136,
 0.00024026,0.00204932,-0.00141463,-0.01273552,0.03922419,0.01312789,0.
 00318856,0.00525787,-0.00030720,-0.00197095,-0.00350880,-0.00076998,-0
 .12731059,0.07376899,-0.01280701,-0.00114515,0.00086124,-0.00011089,-0
 .00009222,0.00013741,0.00027037,-0.00125631,0.00155425,0.00025809,0.13
 272799,0.00201365,0.02027347,0.00363889,-0.00293957,0.00193359,-0.0014
 4525,-0.01084306,-0.02811177,-0.00613983,0.00179315,0.00349482,0.00052
 781,-0.00120906,0.00348849,-0.00360501,0.08474096,-0.15157684,0.028137
 03,0.00008006,0.00032440,0.00041089,-0.00009299,0.00003634,0.00003648,
 0.00172592,-0.00131379,-0.00054324,-0.09740581,0.17688338,0.01272331,0
 .02753864,0.00213048,-0.00302253,0.00162545,-0.00184456,-0.05831464,-0
 .00922630,-0.00401292,-0.00188422,-0.00446024,-0.00242094,-0.00216582,
 -0.00142393,0.00592993,0.10540549,-0.09691499,0.05262364,0.00081604,-0
 .00074391,-0.00021898,0.00062514,-0.00048306,-0.00033754,-0.00089464,0
 .00094111,-0.00058801,-0.01304021,0.01064291,-0.00868507,-0.22895397,0
 .17548053,0.02661472,-0.00995603,0.02431200,0.00415743,0.02281803,-0.0
 0539196,0.00136212,0.00022216,-0.00034927,-0.00003800,-0.00121767,-0.0
 0355319,-0.00027821,-0.00537773,-0.00277754,-0.01286841,-0.00033093,0.
 00013730,-0.00008691,0.00053046,-0.00077770,-0.00005884,-0.00047883,0.
 00015691,0.00003285,0.00057747,0.01045439,0.01077654,0.21807584,0.1783
 3763,-0.28406769,-0.03914096,-0.01119056,0.01134016,0.00177460,0.02218
 609,-0.02999510,-0.00453897,-0.00019137,-0.00014473,-0.00001368,-0.004
 44489,-0.00206839,-0.00221934,0.00195969,-0.00454807,0.00144555,-0.000
 11436,0.00034951,0.00018446,0.00110242,-0.00091469,0.00006506,0.000118
 31,0.00020829,-0.00011001,0.00253279,0.00118726,0.00067437,-0.19057102
 ,0.30708546,0.02756497,-0.03879271,-0.02222561,-0.00069832,0.00098296,
 -0.00132434,0.00069970,-0.00500047,0.00376405,0.00013950,0.00007208,-0
 .00022764,-0.00021295,0.00029052,0.00360559,0.00209462,-0.00088819,-0.
 00403127,0.00024866,-0.00064405,-0.00001560,-0.00014894,0.00020168,0.0
 0062161,-0.00039726,0.00052545,0.00004935,0.00097326,0.00415125,-0.000
 60509,-0.02963274,0.04258635,0.02218364,-0.00723245,-0.00055409,-0.002
 22528,-0.00000796,-0.00157679,-0.00068358,-0.02095603,-0.04177907,0.01
 107300,-0.45143939,0.09676614,-0.05537289,-0.00040507,-0.00058810,0.00
 071103,-0.13752951,-0.10134703,0.02156357,-0.00017180,0.00019241,-0.00
 036754,-0.00144022,-0.00098722,-0.00034948,-0.00059282,-0.00062783,-0.
 00026694,0.01852474,0.01297354,-0.01673599,-0.00031362,0.00051017,0.00
 061133,0.61119572,-0.00399539,-0.00851801,-0.00179224,0.00089021,-0.00
 013036,0.00182736,0.00089194,0.00204271,0.00882652,0.03689960,-0.04563
 593,0.01498432,0.00134793,-0.00221766,-0.00116985,-0.05420459,-0.18582
 637,0.01939036,-0.00079725,0.00089151,-0.00030155,-0.00054365,0.001361
 63,0.00023710,-0.00074636,0.00088087,0.00036605,-0.00412946,-0.0373336
 3,0.00912097,0.00041539,0.00095433,-0.00028106,0.03059863,0.29225822,0
 .00229540,0.00989162,0.00530563,-0.00103426,-0.00052841,-0.00019582,-0
 .01502354,-0.01048950,-0.00075032,-0.04605757,0.01761183,-0.00886340,-
 0.00028241,0.00029911,-0.00082338,0.02193654,0.03040645,-0.03835931,0.
 00056829,0.00022972,0.00019655,0.00017614,-0.00027734,-0.00060814,-0.0
 0008220,-0.00057567,-0.00012819,-0.00848514,-0.00366036,0.00372038,0.0
 0249618,-0.00028487,-0.00005016,0.03449636,-0.05549326,0.03707764,0.00
 454832,0.01254337,0.00168229,-0.00114982,0.00050931,0.00078595,-0.0377
 5646,-0.00312367,-0.02291742,-0.00077473,-0.00329534,0.00065097,-0.000
 77149,-0.00022118,0.00239828,0.04309352,-0.03710117,0.01516325,0.00058
 929,-0.00038648,-0.00010662,0.00022253,-0.00007501,-0.00026207,-0.0002
 3177,0.00011819,-0.00036932,-0.00651863,-0.00129118,-0.03428847,0.0044
 0482,-0.00023491,-0.00124183,-0.00963159,-0.00662701,0.00899620,0.0039
 7601,-0.01355090,-0.02361571,-0.00615525,0.00248453,-0.00062085,0.0011
 4348,0.04552106,0.01071993,0.01330864,0.00133208,0.00338264,0.00181015
 ,0.00065540,0.00038691,-0.00032295,-0.05919167,0.03108082,-0.02007695,
 0.00000569,-0.00025435,0.00003738,-0.00048581,0.00041907,0.00030676,0.
 00012657,0.00009293,0.00038056,-0.01496548,0.01071427,0.06270898,-0.00
 753582,0.00061366,-0.00320381,0.00641926,-0.01872729,0.01287068,0.0391
 8509,-0.01419203,-0.00229831,-0.00196481,0.00149439,0.00042651,-0.0004
 4100,0.00056027,0.01349662,-0.00153126,-0.00546550,-0.00020891,0.00185
 744,0.00086168,0.00003028,0.00052021,0.00101288,-0.07010720,0.09341709
 ,-0.13440061,0.00056400,-0.00043546,0.00018027,0.00005475,-0.00011307,
 -0.00000350,0.00023698,-0.00021260,-0.00006307,0.02322681,-0.03215158,
 -0.04569132,-0.00247672,-0.00042255,-0.00174452,0.00754641,0.00428528,
 0.00347851,0.02950878,-0.06280769,0.17978053\\-0.00000136,-0.00001561,
 0.00001021,0.00000072,0.00000678,-0.00000275,0.00000447,0.00001368,-0.
 00001525,0.00000584,0.00000068,-0.00000184,-0.00000348,0.00000152,0.00
 000195,0.00000130,-0.00001484,0.00002057,0.00000276,0.00000129,-0.0000
 0272,0.00000140,0.00000156,-0.00000288,0.00000218,0.00000212,-0.000001
 93,0.00000390,-0.00001096,-0.00000966,-0.00000119,0.00000888,0.0000046
 0,-0.00000963,-0.00000976,-0.00000125,-0.00000691,0.00001465,0.0000009
 6\\\@


 NOTHING WILL BE ATTEMPTED IF ALL POSSIBLE OBJECTIONS
 MUST FIRST BE OVERCOME.

                               -- THE GOLDEN PRINCIPLE,
                    PAUL DICKSON'S "THE OFFICIAL RULES"
 Job cpu time:       0 days  0 hours  1 minutes  4.4 seconds.
 File lengths (MBytes):  RWF=     12 Int=      0 D2E=      0 Chk=      2 Scr=      1
 Normal termination of Gaussian 09 at Wed Apr 13 08:10:44 2016.
