 Entering Link 1 = c:\G09w04\l1.exe PID=      2332.
  
 Copyright (c) 1988,1990,1992,1993,1995,1998,2003,2009,2010,
            Gaussian, Inc.  All Rights Reserved.
  
 This is part of the Gaussian(R) 09 program.  It is based on
 the Gaussian(R) 03 system (copyright 2003, Gaussian, Inc.),
 the Gaussian(R) 98 system (copyright 1998, Gaussian, Inc.),
 the Gaussian(R) 94 system (copyright 1995, Gaussian, Inc.),
 the Gaussian 92(TM) system (copyright 1992, Gaussian, Inc.),
 the Gaussian 90(TM) system (copyright 1990, Gaussian, Inc.),
 the Gaussian 88(TM) system (copyright 1988, Gaussian, Inc.),
 the Gaussian 86(TM) system (copyright 1986, Carnegie Mellon
 University), and the Gaussian 82(TM) system (copyright 1983,
 Carnegie Mellon University). Gaussian is a federally registered
 trademark of Gaussian, Inc.
  
 This software contains proprietary and confidential information,
 including trade secrets, belonging to Gaussian, Inc.
  
 This software is provided under written license and may be
 used, copied, transmitted, or stored only in accord with that
 written license.
  
 The following legend is applicable only to US Government
 contracts under FAR:
  
                    RESTRICTED RIGHTS LEGEND
  
 Use, reproduction and disclosure by the US Government is
 subject to restrictions as set forth in subparagraphs (a)
 and (c) of the Commercial Computer Software - Restricted
 Rights clause in FAR 52.227-19.
  
 Gaussian, Inc.
 340 Quinnipiac St., Bldg. 40, Wallingford CT 06492
  
  
 ---------------------------------------------------------------
 Warning -- This program may not be used in any manner that
 competes with the business of Gaussian, Inc. or will provide
 assistance to any competitor of Gaussian, Inc.  The licensee
 of this program is prohibited from giving any competitor of
 Gaussian, Inc. access to this program.  By using this program,
 the user acknowledges that Gaussian, Inc. is engaged in the
 business of creating and licensing software in the field of
 computational chemistry and represents and warrants to the
 licensee that it is not a competitor of Gaussian, Inc. and that
 it will not use this program in any manner prohibited above.
 ---------------------------------------------------------------
  

 Cite this work as:
 Gaussian 09, Revision B.01,
 M. J. Frisch, G. W. Trucks, H. B. Schlegel, G. E. Scuseria, 
 M. A. Robb, J. R. Cheeseman, G. Scalmani, V. Barone, B. Mennucci, 
 G. A. Petersson, H. Nakatsuji, M. Caricato, X. Li, H. P. Hratchian, 
 A. F. Izmaylov, J. Bloino, G. Zheng, J. L. Sonnenberg, M. Hada, 
 M. Ehara, K. Toyota, R. Fukuda, J. Hasegawa, M. Ishida, T. Nakajima, 
 Y. Honda, O. Kitao, H. Nakai, T. Vreven, J. A. Montgomery, Jr., 
 J. E. Peralta, F. Ogliaro, M. Bearpark, J. J. Heyd, E. Brothers, 
 K. N. Kudin, V. N. Staroverov, T. Keith, R. Kobayashi, J. Normand, 
 K. Raghavachari, A. Rendell, J. C. Burant, S. S. Iyengar, J. Tomasi, 
 M. Cossi, N. Rega, J. M. Millam, M. Klene, J. E. Knox, J. B. Cross, 
 V. Bakken, C. Adamo, J. Jaramillo, R. Gomperts, R. E. Stratmann, 
 O. Yazyev, A. J. Austin, R. Cammi, C. Pomelli, J. W. Ochterski, 
 R. L. Martin, K. Morokuma, V. G. Zakrzewski, G. A. Voth, 
 P. Salvador, J. J. Dannenberg, S. Dapprich, A. D. Daniels, 
 O. Farkas, J. B. Foresman, J. V. Ortiz, J. Cioslowski, 
 and D. J. Fox, Gaussian, Inc., Wallingford CT, 2010.
 
 ******************************************
 Gaussian 09:  IA32W-G09RevB.01 12-Aug-2010
                16-Apr-2016 
 ******************************************
 %chk=Val-S-opt-freq-cpcm-w-tsa2-6-311++gdp.chk
 ----------------------------------------------------------------------
 #p opt=(calcfc,ts) freq rb3lyp/6-311++g(d,p) scrf=(cpcm,solvent=water)
  iop(1/11=1) nosymm
 ----------------------------------------------------------------------
 1/5=1,10=4,11=1,14=-1,18=20,26=3,38=1/1,3;
 2/9=110,12=2,15=1,17=6,18=5,40=1/2;
 3/5=4,6=6,7=1111,11=2,16=1,25=1,30=1,70=2101,71=2,72=1,74=-5,116=1/1,2,3;
 4//1;
 5/5=2,38=5,53=1/2;
 8/6=4,10=90,11=11/1;
 11/6=1,8=1,9=11,15=111,16=1,31=1/1,2,10;
 10/6=1,7=6,13=1,31=1/2;
 6/7=2,8=2,9=2,10=2,28=1/1;
 7/10=1,18=20,25=1,30=1/1,2,3,16;
 1/5=1,10=4,11=1,14=-1,18=20/3(2);
 2/9=110,15=1/2;
 99//99;
 2/9=110,15=1/2;
 3/5=4,6=6,7=1111,11=2,16=1,25=1,30=1,70=2105,71=1,72=1,74=-5,116=1/1,2,3;
 4/5=5,16=3/1;
 5/5=2,38=5,53=1/2;
 7/30=1/1,2,3,16;
 1/5=1,11=1,14=-1,18=20/3(-5);
 2/9=110,15=1/2;
 6/7=2,8=2,9=2,10=2,19=2,28=1/1;
 99/9=1/99;
 Leave Link    1 at Sat Apr 16 01:16:20 2016, MaxMem=          0 cpu:       0.0
 (Enter c:\G09w04\l101.exe)
 -------------------------------------
 Val-S-opt-freq-cpcm-w-tsa2-6-311++gdp
 -------------------------------------
 Symbolic Z-matrix:
 Charge =  0 Multiplicity = 1
 N                    -0.07451   1.91706  -0.00049 
 H                    -0.3045    2.05502   0.97962 
 C                    -0.07621   0.4874   -0.33441 
 H                    -0.81851  -0.14212  -1.60433 
 C                     1.06305  -0.2605    0.40188 
 C                    -1.43552  -0.1596   -0.07024 
 C                     1.00693  -1.77363   0.14617 
 O                    -1.80768  -0.06434   1.22384 
 H                     1.10432  -1.99474  -0.92188 
 H                     1.82843  -2.27336   0.66547 
 H                     0.07527  -2.22333   0.50041 
 H                    -0.77126   2.41599  -0.54532 
 O                    -2.13571  -0.68382  -0.90945 
 H                    -2.68524  -0.46662   1.32316 
 H                     0.91913  -0.08842   1.4758 
 C                     2.43154   0.30347  -0.00126 
 H                     2.49643   1.37499   0.18961 
 H                     3.225    -0.19573   0.56171 
 H                     2.62073   0.13478  -1.06708 
 
 NAtoms=     19 NQM=     19 NQMF=      0 NMic=      0 NMicF=      0 NTot=     19.
 Add atom      4 valence  3 ND=      2 dihedral       3      4      6     13
                    Isotopes and Nuclear Properties:
 (Nuclear quadrupole moments (NQMom) in fm**2, nuclear magnetic moments (NMagM)
  in nuclear magnetons)

  Atom         1           2           3           4           5           6           7           8           9          10
 IAtWgt=          14           1          12           1          12          12          12          16           1           1
 AtmWgt=  14.0030740   1.0078250  12.0000000   1.0078250  12.0000000  12.0000000  12.0000000  15.9949146   1.0078250   1.0078250
 NucSpn=           2           1           0           1           0           0           0           0           1           1
 AtZEff=   0.0000000   0.0000000   0.0000000   0.0000000   0.0000000   0.0000000   0.0000000   0.0000000   0.0000000   0.0000000
 NQMom=    2.0440000   0.0000000   0.0000000   0.0000000   0.0000000   0.0000000   0.0000000   0.0000000   0.0000000   0.0000000
 NMagM=    0.4037610   2.7928460   0.0000000   2.7928460   0.0000000   0.0000000   0.0000000   0.0000000   2.7928460   2.7928460

  Atom        11          12          13          14          15          16          17          18          19
 IAtWgt=           1           1          16           1           1          12           1           1           1
 AtmWgt=   1.0078250   1.0078250  15.9949146   1.0078250   1.0078250  12.0000000   1.0078250   1.0078250   1.0078250
 NucSpn=           1           1           0           1           1           0           1           1           1
 AtZEff=   0.0000000   0.0000000   0.0000000   0.0000000   0.0000000   0.0000000   0.0000000   0.0000000   0.0000000
 NQMom=    0.0000000   0.0000000   0.0000000   0.0000000   0.0000000   0.0000000   0.0000000   0.0000000   0.0000000
 NMagM=    2.7928460   2.7928460   0.0000000   2.7928460   2.7928460   0.0000000   2.7928460   2.7928460   2.7928460
 Leave Link  101 at Sat Apr 16 01:16:21 2016, MaxMem=   33554432 cpu:       0.0
 (Enter c:\G09w04\l103.exe)

 GradGradGradGradGradGradGradGradGradGradGradGradGradGradGradGradGradGrad
 Berny optimization.
 Initialization pass.
                           ----------------------------
                           !    Initial Parameters    !
                           ! (Angstroms and Degrees)  !
 --------------------------                            --------------------------
 ! Name  Definition              Value          Derivative Info.                !
 --------------------------------------------------------------------------------
 ! R1    R(1,2)                  1.0161         calculate D2E/DX2 analytically  !
 ! R2    R(1,3)                  1.4681         calculate D2E/DX2 analytically  !
 ! R3    R(1,12)                 1.0155         calculate D2E/DX2 analytically  !
 ! R4    R(3,4)                  1.6            calculate D2E/DX2 analytically  !
 ! R5    R(3,5)                  1.549          calculate D2E/DX2 analytically  !
 ! R6    R(3,6)                  1.5284         calculate D2E/DX2 analytically  !
 ! R7    R(4,6)                  1.6536         calculate D2E/DX2 analytically  !
 ! R8    R(4,13)                 1.5847         calculate D2E/DX2 analytically  !
 ! R9    R(5,7)                  1.5356         calculate D2E/DX2 analytically  !
 ! R10   R(5,15)                 1.0971         calculate D2E/DX2 analytically  !
 ! R11   R(5,16)                 1.5341         calculate D2E/DX2 analytically  !
 ! R12   R(6,8)                  1.3499         calculate D2E/DX2 analytically  !
 ! R13   R(6,13)                 1.2122         calculate D2E/DX2 analytically  !
 ! R14   R(7,9)                  1.095          calculate D2E/DX2 analytically  !
 ! R15   R(7,10)                 1.0928         calculate D2E/DX2 analytically  !
 ! R16   R(7,11)                 1.0935         calculate D2E/DX2 analytically  !
 ! R17   R(8,14)                 0.9705         calculate D2E/DX2 analytically  !
 ! R18   R(16,17)                1.0903         calculate D2E/DX2 analytically  !
 ! R19   R(16,18)                1.0935         calculate D2E/DX2 analytically  !
 ! R20   R(16,19)                1.0956         calculate D2E/DX2 analytically  !
 ! A1    A(2,1,3)              110.5686         calculate D2E/DX2 analytically  !
 ! A2    A(2,1,12)             107.1865         calculate D2E/DX2 analytically  !
 ! A3    A(3,1,12)             110.8315         calculate D2E/DX2 analytically  !
 ! A4    A(1,3,4)              124.3464         calculate D2E/DX2 analytically  !
 ! A5    A(1,3,5)              111.1744         calculate D2E/DX2 analytically  !
 ! A6    A(1,3,6)              111.9581         calculate D2E/DX2 analytically  !
 ! A7    A(4,3,5)              121.906          calculate D2E/DX2 analytically  !
 ! A8    A(5,3,6)              111.5652         calculate D2E/DX2 analytically  !
 ! A9    A(3,4,13)              99.9092         calculate D2E/DX2 analytically  !
 ! A10   A(3,5,7)              111.6989         calculate D2E/DX2 analytically  !
 ! A11   A(3,5,15)             107.0424         calculate D2E/DX2 analytically  !
 ! A12   A(3,5,16)             110.7128         calculate D2E/DX2 analytically  !
 ! A13   A(7,5,15)             108.2258         calculate D2E/DX2 analytically  !
 ! A14   A(7,5,16)             110.5539         calculate D2E/DX2 analytically  !
 ! A15   A(15,5,16)            108.4575         calculate D2E/DX2 analytically  !
 ! A16   A(3,6,8)              112.3961         calculate D2E/DX2 analytically  !
 ! A17   A(3,6,13)             125.2487         calculate D2E/DX2 analytically  !
 ! A18   A(4,6,8)              172.5168         calculate D2E/DX2 analytically  !
 ! A19   A(8,6,13)             122.3413         calculate D2E/DX2 analytically  !
 ! A20   A(5,7,9)              110.9852         calculate D2E/DX2 analytically  !
 ! A21   A(5,7,10)             110.12           calculate D2E/DX2 analytically  !
 ! A22   A(5,7,11)             112.484          calculate D2E/DX2 analytically  !
 ! A23   A(9,7,10)             107.7159         calculate D2E/DX2 analytically  !
 ! A24   A(9,7,11)             107.981          calculate D2E/DX2 analytically  !
 ! A25   A(10,7,11)            107.3663         calculate D2E/DX2 analytically  !
 ! A26   A(6,8,14)             108.5518         calculate D2E/DX2 analytically  !
 ! A27   A(5,16,17)            111.6154         calculate D2E/DX2 analytically  !
 ! A28   A(5,16,18)            110.1319         calculate D2E/DX2 analytically  !
 ! A29   A(5,16,19)            110.677          calculate D2E/DX2 analytically  !
 ! A30   A(17,16,18)           108.3818         calculate D2E/DX2 analytically  !
 ! A31   A(17,16,19)           108.1406         calculate D2E/DX2 analytically  !
 ! A32   A(18,16,19)           107.7745         calculate D2E/DX2 analytically  !
 ! D1    D(2,1,3,4)            131.8506         calculate D2E/DX2 analytically  !
 ! D2    D(2,1,3,5)            -66.1247         calculate D2E/DX2 analytically  !
 ! D3    D(2,1,3,6)             59.4087         calculate D2E/DX2 analytically  !
 ! D4    D(12,1,3,4)            13.1354         calculate D2E/DX2 analytically  !
 ! D5    D(12,1,3,5)           175.16           calculate D2E/DX2 analytically  !
 ! D6    D(12,1,3,6)           -59.3066         calculate D2E/DX2 analytically  !
 ! D7    D(1,3,4,13)           -99.6982         calculate D2E/DX2 analytically  !
 ! D8    D(5,3,4,13)           100.117          calculate D2E/DX2 analytically  !
 ! D9    D(1,3,5,7)            175.6402         calculate D2E/DX2 analytically  !
 ! D10   D(1,3,5,15)            57.3424         calculate D2E/DX2 analytically  !
 ! D11   D(1,3,5,16)           -60.6876         calculate D2E/DX2 analytically  !
 ! D12   D(4,3,5,7)            -21.8262         calculate D2E/DX2 analytically  !
 ! D13   D(4,3,5,15)          -140.124          calculate D2E/DX2 analytically  !
 ! D14   D(4,3,5,16)           101.846          calculate D2E/DX2 analytically  !
 ! D15   D(6,3,5,7)             49.8881         calculate D2E/DX2 analytically  !
 ! D16   D(6,3,5,15)           -68.4098         calculate D2E/DX2 analytically  !
 ! D17   D(6,3,5,16)           173.5602         calculate D2E/DX2 analytically  !
 ! D18   D(1,3,6,8)            -59.9878         calculate D2E/DX2 analytically  !
 ! D19   D(1,3,6,13)           118.6774         calculate D2E/DX2 analytically  !
 ! D20   D(5,3,6,8)             65.3306         calculate D2E/DX2 analytically  !
 ! D21   D(5,3,6,13)          -116.0041         calculate D2E/DX2 analytically  !
 ! D22   D(3,4,6,13)          -179.9782         calculate D2E/DX2 analytically  !
 ! D23   D(3,5,7,9)             60.0473         calculate D2E/DX2 analytically  !
 ! D24   D(3,5,7,10)           179.2311         calculate D2E/DX2 analytically  !
 ! D25   D(3,5,7,11)           -61.0561         calculate D2E/DX2 analytically  !
 ! D26   D(15,5,7,9)           177.636          calculate D2E/DX2 analytically  !
 ! D27   D(15,5,7,10)          -63.1802         calculate D2E/DX2 analytically  !
 ! D28   D(15,5,7,11)           56.5326         calculate D2E/DX2 analytically  !
 ! D29   D(16,5,7,9)           -63.7145         calculate D2E/DX2 analytically  !
 ! D30   D(16,5,7,10)           55.4693         calculate D2E/DX2 analytically  !
 ! D31   D(16,5,7,11)          175.1821         calculate D2E/DX2 analytically  !
 ! D32   D(3,5,16,17)           56.6693         calculate D2E/DX2 analytically  !
 ! D33   D(3,5,16,18)          177.102          calculate D2E/DX2 analytically  !
 ! D34   D(3,5,16,19)          -63.8283         calculate D2E/DX2 analytically  !
 ! D35   D(7,5,16,17)         -179.0026         calculate D2E/DX2 analytically  !
 ! D36   D(7,5,16,18)          -58.5699         calculate D2E/DX2 analytically  !
 ! D37   D(7,5,16,19)           60.4997         calculate D2E/DX2 analytically  !
 ! D38   D(15,5,16,17)         -60.4941         calculate D2E/DX2 analytically  !
 ! D39   D(15,5,16,18)          59.9386         calculate D2E/DX2 analytically  !
 ! D40   D(15,5,16,19)         179.0082         calculate D2E/DX2 analytically  !
 ! D41   D(3,6,8,14)           178.3032         calculate D2E/DX2 analytically  !
 ! D42   D(4,6,8,14)           169.2096         calculate D2E/DX2 analytically  !
 ! D43   D(13,6,8,14)           -0.4066         calculate D2E/DX2 analytically  !
 --------------------------------------------------------------------------------
 Trust Radius=3.00D-01 FncErr=1.00D-07 GrdErr=1.00D-06
 Number of steps in this run=    105 maximum allowed number of steps=    114.
 Search for a saddle point of order  1.
 GradGradGradGradGradGradGradGradGradGradGradGradGradGradGradGradGradGrad

 Leave Link  103 at Sat Apr 16 01:16:21 2016, MaxMem=   33554432 cpu:       0.0
 (Enter c:\G09w04\l202.exe)
                          Input orientation:                          
 ---------------------------------------------------------------------
 Center     Atomic      Atomic             Coordinates (Angstroms)
 Number     Number       Type             X           Y           Z
 ---------------------------------------------------------------------
      1          7           0       -0.074506    1.917059   -0.000494
      2          1           0       -0.304504    2.055021    0.979619
      3          6           0       -0.076205    0.487400   -0.334414
      4          1           0       -0.818510   -0.142117   -1.604332
      5          6           0        1.063051   -0.260498    0.401883
      6          6           0       -1.435523   -0.159596   -0.070244
      7          6           0        1.006934   -1.773631    0.146173
      8          8           0       -1.807684   -0.064337    1.223838
      9          1           0        1.104317   -1.994737   -0.921880
     10          1           0        1.828432   -2.273357    0.665472
     11          1           0        0.075272   -2.223331    0.500410
     12          1           0       -0.771256    2.415992   -0.545321
     13          8           0       -2.135711   -0.683823   -0.909452
     14          1           0       -2.685241   -0.466617    1.323158
     15          1           0        0.919129   -0.088417    1.475803
     16          6           0        2.431545    0.303471   -0.001255
     17          1           0        2.496428    1.374994    0.189612
     18          1           0        3.225002   -0.195729    0.561708
     19          1           0        2.620726    0.134784   -1.067081
 ---------------------------------------------------------------------
                    Distance matrix (angstroms):
                    1          2          3          4          5
     1  N    0.000000
     2  H    1.016147   0.000000
     3  C    1.468138   2.058213   0.000000
     4  H    2.714046   3.430513   1.600000   0.000000
     5  C    2.489518   2.750566   1.548996   2.753032   0.000000
     6  C    2.483894   2.699249   1.528442   1.653614   2.544790
     7  C    3.848664   4.131958   2.552727   3.009709   1.535613
     8  O    2.903244   2.609765   2.393864   2.997176   2.992525
     9  H    4.188165   4.690524   2.810650   2.755940   2.182117
    10  H    4.650190   4.835593   3.499885   4.086624   2.169536
    11  H    4.173268   4.321824   2.840412   3.091963   2.199575
    12  H    1.015496   1.635115   2.060836   2.769054   3.380159
    13  O    3.440837   3.797786   2.438031   1.584716   3.482942
    14  H    3.774904   3.484908   3.234928   3.487146   3.865349
    15  H    2.681175   2.517499   2.144561   3.536878   1.097101
    16  C    2.980597   3.393524   2.536461   3.651200   1.534066
    17  H    2.634327   2.988606   2.771438   4.063087   2.185054
    18  H    3.958118   4.206892   3.488218   4.587438   2.168818
    19  H    3.402703   4.053796   2.816838   3.491941   2.177258
                    6          7          8          9         10
     6  C    0.000000
     7  C    2.935565   0.000000
     8  O    1.349899   3.464841   0.000000
     9  H    3.247124   1.095038   4.100037   0.000000
    10  H    3.957609   1.092820   4.291023   1.766821   0.000000
    11  H    2.620525   1.093484   2.954679   1.770338   1.761624
    12  H    2.701963   4.603593   3.218095   4.807713   5.496762
    13  O    1.212166   3.489734   2.245505   3.495201   4.552080
    14  H    1.896741   4.089711   0.970464   4.662199   4.906129
    15  H    2.817750   2.148388   2.738535   3.068751   2.501486
    16  C    3.895306   2.523015   4.428002   2.809065   2.729160
    17  H    4.228798   3.483435   4.654748   3.811624   3.739402
    18  H    4.703314   2.753592   5.077756   3.151947   2.505536
    19  H    4.187302   2.778193   4.989867   2.618289   3.070605
                   11         12         13         14         15
    11  H    0.000000
    12  H    4.830474   0.000000
    13  O    3.040763   3.406344   0.000000
    14  H    3.373928   3.932428   2.309482   0.000000
    15  H    2.494262   3.635163   3.921224   3.627371   0.000000
    16  C    3.491192   3.875137   4.760189   5.341217   2.150042
    17  H    4.348165   3.507358   5.186847   5.614815   2.506737
    18  H    3.746428   4.900681   5.580304   5.965246   2.482768
    19  H    3.807502   4.120884   4.828940   5.850488   3.067818
                   16         17         18         19
    16  C    0.000000
    17  H    1.090322   0.000000
    18  H    1.093482   1.771001   0.000000
    19  H    1.095550   1.769985   1.768429   0.000000
 Symmetry turned off by external request.
 Stoichiometry    C5H11NO2
 Framework group  C1[X(C5H11NO2)]
 Deg. of freedom    51
 Full point group                 C1      NOp   1
 Rotational constants (GHZ):      2.8211331      1.5216979      1.2344623
 Leave Link  202 at Sat Apr 16 01:16:21 2016, MaxMem=   33554432 cpu:       0.0
 (Enter c:\G09w04\l301.exe)
 Standard basis: 6-311++G(d,p) (5D, 7F)
 Ernie: Thresh=  0.10000D-02 Tol=  0.10000D-05 Strict=F.
 Integral buffers will be    262144 words long.
 Raffenetti 2 integral format.
 Two-electron integral symmetry is turned off.
   253 basis functions,   387 primitive gaussians,   261 cartesian basis functions
    32 alpha electrons       32 beta electrons
       nuclear repulsion energy       404.9520543923 Hartrees.
 IExCor=  402 DFT=T Ex+Corr=B3LYP ExCW=0 ScaHFX=  0.200000
 ScaDFX=  0.800000  0.720000  1.000000  0.810000 ScalE2=  1.000000  1.000000
 IRadAn=      0 IRanWt=     -1 IRanGd=            0 ICorTp=0
 NAtoms=   19 NActive=   19 NUniq=   19 SFac= 1.00D+00 NAtFMM=   50 NAOKFM=F Big=F
 ------------------------------------------------------------------------------
 Polarizable Continuum Model (PCM)
 =================================
 Model                : C-PCM.
 Atomic radii         : UFF (Universal Force Field).
 Polarization charges : Total charges.
 Charge compensation  : None.
 Solution method      : Matrix inversion.
 Cavity type          : Scaled VdW (van der Waals Surface) (Alpha=1.100).
 Cavity algorithm     : GePol (No added spheres)
                        Default sphere list used, NSphG=   19.
                        Lebedev-Laikov grids with approx.  5.0 points / Ang**2.
                        Smoothing algorithm: Karplus/York (Gamma=1.0000).
                        Polarization charges: spherical gaussians, with
                                              point-specific exponents (IZeta= 3).
                        Self-potential: point-specific (ISelfS= 7).
                        Self-field    : sphere-specific E.n sum rule (ISelfD= 2).
 1st derivatives      : Analytical E(r).r(x)/FMM algorithm (CHGder, D1EAlg=3).
                        Cavity 1st derivative terms included.
 2nd derivatives      : Analytical E(r).r(xy)/FMM algorithm (CHGder, D2EAlg=3).
                        Cavity 2nd derivative terms included.
 Solvent              : Water, Eps=  78.355300 Eps(inf)=   1.777849
 ------------------------------------------------------------------------------
 Spheres list:
 ISph  on   Nord    Re0     Alpha      Xe            Ye            Ze
    1   N      1    1.830   1.100     -0.074506      1.917059     -0.000494
    2   H      2    1.443   1.100     -0.304504      2.055021      0.979619
    3   C      3    1.926   1.100     -0.076205      0.487400     -0.334414
    4   H      4    1.443   1.100     -0.818510     -0.142117     -1.604332
    5   C      5    1.926   1.100      1.063051     -0.260498      0.401883
    6   C      6    1.926   1.100     -1.435523     -0.159596     -0.070244
    7   C      7    1.926   1.100      1.006934     -1.773631      0.146173
    8   O      8    1.750   1.100     -1.807684     -0.064337      1.223838
    9   H      9    1.443   1.100      1.104317     -1.994737     -0.921880
   10   H     10    1.443   1.100      1.828432     -2.273357      0.665472
   11   H     11    1.443   1.100      0.075272     -2.223331      0.500410
   12   H     12    1.443   1.100     -0.771256      2.415992     -0.545321
   13   O     13    1.750   1.100     -2.135711     -0.683823     -0.909452
   14   H     14    1.443   1.100     -2.685241     -0.466617      1.323158
   15   H     15    1.443   1.100      0.919129     -0.088417      1.475803
   16   C     16    1.926   1.100      2.431545      0.303471     -0.001255
   17   H     17    1.443   1.100      2.496428      1.374994      0.189612
   18   H     18    1.443   1.100      3.225002     -0.195729      0.561708
   19   H     19    1.443   1.100      2.620726      0.134784     -1.067081
 ------------------------------------------------------------------------------
 GePol: Number of generator spheres                  =      19
 GePol: Total number of spheres                      =      19
 GePol: Number of exposed spheres                    =      19 (100.00%)
 GePol: Number of points                             =    1423
 GePol: Average weight of points                     =       0.14
 GePol: Minimum weight of points                     =   0.41D-08
 GePol: Maximum weight of points                     =    0.20577
 GePol: Number of points with low weight             =      79
 GePol: Fraction of low-weight points (<1% of avg)   =       5.55%
 GePol: Cavity surface area                          =    192.425 Ang**2
 GePol: Cavity volume                                =    188.950 Ang**3
 Leave Link  301 at Sat Apr 16 01:16:22 2016, MaxMem=   33554432 cpu:       0.0
 (Enter c:\G09w04\l302.exe)
 NPDir=0 NMtPBC=     1 NCelOv=     1 NCel=       1 NClECP=     1 NCelD=      1
         NCelK=      1 NCelE2=     1 NClLst=     1 CellRange=     0.0.
 One-electron integrals computed using PRISM.
 NBasis=   253 RedAO= T  NBF=   253
 NBsUse=   253 1.00D-06 NBFU=   253
 Precomputing XC quadrature grid using
 IXCGrd= 2 IRadAn=           0 IRanWt=          -1 IRanGd=           0 AccXCQ= 0.00D+00.
 NRdTot=    1232 NPtTot=      156990 NUsed=      162737 NTot=      162753
 NSgBfM=   261   261   261   261   261 NAtAll=    19    19.
 Leave Link  302 at Sat Apr 16 01:16:24 2016, MaxMem=   33554432 cpu:       1.0
 (Enter c:\G09w04\l303.exe)
 DipDrv:  MaxL=1.
 Leave Link  303 at Sat Apr 16 01:16:25 2016, MaxMem=   33554432 cpu:       0.0
 (Enter c:\G09w04\l401.exe)
 Harris functional with IExCor=  402 diagonalized for initial guess.
 ExpMin= 3.60D-02 ExpMax= 8.59D+03 ExpMxC= 1.30D+03 IAcc=3 IRadAn=         0 AccDes= 0.00D+00
 HarFok:  IExCor=  402 AccDes= 0.00D+00 IRadAn=         0 IDoV= 1
 ScaDFX=  1.000000  1.000000  1.000000  1.000000
 FoFCou: FMM=F IPFlag=           0 FMFlag=      100000 FMFlg1=           0
         NFxFlg=           0 DoJE=T BraDBF=F KetDBF=T FulRan=T
         Omega=  0.000000  0.000000  1.000000  0.000000  0.000000 ICntrl=     500 IOpCl=  0
         NMat0=    1 NMatS0=    1 NMatT0=    0 NMatD0=    1 NMtDS0=    0 NMtDT0=    0
         I1Cent=           4 NGrid=           0.
 Symmetry not used in FoFCou.
 Harris En= -402.419228626744    
 Leave Link  401 at Sat Apr 16 01:16:40 2016, MaxMem=   33554432 cpu:      15.0
 (Enter c:\G09w04\l502.exe)
 Closed shell SCF:
 Requested convergence on RMS density matrix=1.00D-08 within 128 cycles.
 Requested convergence on MAX density matrix=1.00D-06.
 Requested convergence on             energy=1.00D-06.
 No special actions if energy rises.
 Using DIIS extrapolation, IDIIS=  1040.
 Two-electron integral symmetry not used.
       162572 words used for storage of precomputed grid.
 IEnd=      388091 IEndB=      388091 NGot=    33554432 MDV=    33251364
 LenX=    33251364 LenY=    33182802
 Fock matrices will be formed incrementally for  20 cycles.

 Cycle   1  Pass 1  IDiag  1:
 FoFCou: FMM=F IPFlag=           0 FMFlag=      100000 FMFlg1=           0
         NFxFlg=           0 DoJE=F BraDBF=F KetDBF=F FulRan=T
         Omega=  0.000000  0.000000  1.000000  0.000000  0.000000 ICntrl=       0 IOpCl=  0
         NMat0=    1 NMatS0=    1 NMatT0=    0 NMatD0=    1 NMtDS0=    0 NMtDT0=    0
         I1Cent=           0 NGrid=           0.
 Symmetry not used in FoFCou.
 E= -402.104444848850    
 DIIS: error= 2.87D-02 at cycle   1 NSaved=   1.
 NSaved= 1 IEnMin= 1 EnMin= -402.104444848850     IErMin= 1 ErrMin= 2.87D-02
 ErrMax= 2.87D-02 EMaxC= 1.00D-01 BMatC= 3.43D-01 BMatP= 3.43D-01
 IDIUse=3 WtCom= 7.13D-01 WtEn= 2.87D-01
 Coeff-Com:  0.100D+01
 Coeff-En:   0.100D+01
 Coeff:      0.100D+01
 Gap=     0.191 Goal=   None    Shift=    0.000
 GapD=    0.191 DampG=1.000 DampE=0.500 DampFc=0.5000 IDamp=-1.
 Damping current iteration by 5.00D-01
 RMSDP=1.85D-02 MaxDP=2.00D+00              OVMax= 2.25D-01

 Cycle   2  Pass 1  IDiag  1:
 RMSU=  5.62D-03    CP:  1.13D+00
 E= -402.202602941138     Delta-E=       -0.098158092288 Rises=F Damp=T
 DIIS: error= 6.83D-03 at cycle   2 NSaved=   2.
 NSaved= 2 IEnMin= 2 EnMin= -402.202602941138     IErMin= 2 ErrMin= 6.83D-03
 ErrMax= 6.83D-03 EMaxC= 1.00D-01 BMatC= 2.61D-02 BMatP= 3.43D-01
 IDIUse=3 WtCom= 9.32D-01 WtEn= 6.83D-02
 Coeff-Com:  0.159D+00 0.841D+00
 Coeff-En:   0.288D+00 0.712D+00
 Coeff:      0.167D+00 0.833D+00
 Gap=     0.249 Goal=   None    Shift=    0.000
 RMSDP=1.31D-02 MaxDP=1.91D+00 DE=-9.82D-02 OVMax= 1.57D-01

 Cycle   3  Pass 1  IDiag  1:
 RMSU=  2.79D-03    CP:  8.18D-01  3.10D-01
 E= -402.384334888025     Delta-E=       -0.181731946887 Rises=F Damp=F
 DIIS: error= 4.50D-03 at cycle   3 NSaved=   3.
 NSaved= 3 IEnMin= 3 EnMin= -402.384334888025     IErMin= 3 ErrMin= 4.50D-03
 ErrMax= 4.50D-03 EMaxC= 1.00D-01 BMatC= 8.03D-03 BMatP= 2.61D-02
 IDIUse=3 WtCom= 9.55D-01 WtEn= 4.50D-02
 Coeff-Com:  0.256D-01 0.352D+00 0.622D+00
 Coeff-En:   0.000D+00 0.000D+00 0.100D+01
 Coeff:      0.244D-01 0.337D+00 0.639D+00
 Gap=     0.215 Goal=   None    Shift=    0.000
 RMSDP=8.02D-04 MaxDP=2.82D-02 DE=-1.82D-01 OVMax= 2.33D-02

 Cycle   4  Pass 1  IDiag  1:
 RMSU=  5.39D-04    CP:  8.17D-01  3.41D-01  1.01D+00
 E= -402.388702811089     Delta-E=       -0.004367923064 Rises=F Damp=F
 DIIS: error= 3.20D-03 at cycle   4 NSaved=   4.
 NSaved= 4 IEnMin= 4 EnMin= -402.388702811089     IErMin= 4 ErrMin= 3.20D-03
 ErrMax= 3.20D-03 EMaxC= 1.00D-01 BMatC= 2.70D-03 BMatP= 8.03D-03
 IDIUse=3 WtCom= 9.68D-01 WtEn= 3.20D-02
 Coeff-Com: -0.703D-02 0.871D-01 0.389D+00 0.531D+00
 Coeff-En:   0.000D+00 0.000D+00 0.258D+00 0.742D+00
 Coeff:     -0.680D-02 0.843D-01 0.385D+00 0.538D+00
 Gap=     0.214 Goal=   None    Shift=    0.000
 RMSDP=7.60D-04 MaxDP=8.48D-02 DE=-4.37D-03 OVMax= 1.50D-02

 Cycle   5  Pass 1  IDiag  1:
 RMSU=  2.41D-04    CP:  8.00D-01  3.55D-01  1.06D+00  7.32D-01
 E= -402.390600108784     Delta-E=       -0.001897297695 Rises=F Damp=F
 DIIS: error= 1.11D-03 at cycle   5 NSaved=   5.
 NSaved= 5 IEnMin= 5 EnMin= -402.390600108784     IErMin= 5 ErrMin= 1.11D-03
 ErrMax= 1.11D-03 EMaxC= 1.00D-01 BMatC= 3.89D-04 BMatP= 2.70D-03
 IDIUse=3 WtCom= 9.89D-01 WtEn= 1.11D-02
 Coeff-Com: -0.652D-02 0.301D-01 0.205D+00 0.354D+00 0.417D+00
 Coeff-En:   0.000D+00 0.000D+00 0.000D+00 0.579D-01 0.942D+00
 Coeff:     -0.644D-02 0.298D-01 0.203D+00 0.351D+00 0.423D+00
 Gap=     0.217 Goal=   None    Shift=    0.000
 RMSDP=2.34D-04 MaxDP=2.45D-02 DE=-1.90D-03 OVMax= 5.85D-03

 Cycle   6  Pass 1  IDiag  1:
 RMSU=  7.51D-05    CP:  7.95D-01  3.43D-01  1.07D+00  7.20D-01  8.24D-01
 E= -402.390891978497     Delta-E=       -0.000291869712 Rises=F Damp=F
 DIIS: error= 1.98D-04 at cycle   6 NSaved=   6.
 NSaved= 6 IEnMin= 6 EnMin= -402.390891978497     IErMin= 6 ErrMin= 1.98D-04
 ErrMax= 1.98D-04 EMaxC= 1.00D-01 BMatC= 1.99D-05 BMatP= 3.89D-04
 IDIUse=3 WtCom= 9.98D-01 WtEn= 1.98D-03
 Coeff-Com: -0.203D-02 0.208D-02 0.486D-01 0.103D+00 0.224D+00 0.625D+00
 Coeff-En:   0.000D+00 0.000D+00 0.000D+00 0.000D+00 0.808D-02 0.992D+00
 Coeff:     -0.203D-02 0.208D-02 0.485D-01 0.103D+00 0.224D+00 0.625D+00
 Gap=     0.216 Goal=   None    Shift=    0.000
 RMSDP=7.42D-05 MaxDP=6.68D-03 DE=-2.92D-04 OVMax= 1.35D-03

 Cycle   7  Pass 1  IDiag  1:
 RMSU=  2.55D-05    CP:  7.97D-01  3.44D-01  1.07D+00  7.26D-01  8.00D-01
                    CP:  7.53D-01
 E= -402.390908138262     Delta-E=       -0.000016159766 Rises=F Damp=F
 DIIS: error= 5.51D-05 at cycle   7 NSaved=   7.
 NSaved= 7 IEnMin= 7 EnMin= -402.390908138262     IErMin= 7 ErrMin= 5.51D-05
 ErrMax= 5.51D-05 EMaxC= 1.00D-01 BMatC= 9.05D-07 BMatP= 1.99D-05
 IDIUse=1 WtCom= 1.00D+00 WtEn= 0.00D+00
 Coeff-Com: -0.643D-03-0.126D-03 0.160D-01 0.368D-01 0.913D-01 0.311D+00
 Coeff-Com:  0.545D+00
 Coeff:     -0.643D-03-0.126D-03 0.160D-01 0.368D-01 0.913D-01 0.311D+00
 Coeff:      0.545D+00
 Gap=     0.216 Goal=   None    Shift=    0.000
 RMSDP=2.06D-05 MaxDP=1.78D-03 DE=-1.62D-05 OVMax= 2.40D-04

 Cycle   8  Pass 1  IDiag  1:
 RMSU=  8.64D-06    CP:  7.96D-01  3.44D-01  1.07D+00  7.25D-01  8.04D-01
                    CP:  8.05D-01  9.37D-01
 E= -402.390908936719     Delta-E=       -0.000000798457 Rises=F Damp=F
 DIIS: error= 1.18D-05 at cycle   8 NSaved=   8.
 NSaved= 8 IEnMin= 8 EnMin= -402.390908936719     IErMin= 8 ErrMin= 1.18D-05
 ErrMax= 1.18D-05 EMaxC= 1.00D-01 BMatC= 7.01D-08 BMatP= 9.05D-07
 IDIUse=1 WtCom= 1.00D+00 WtEn= 0.00D+00
 Coeff-Com:  0.814D-04-0.485D-03-0.551D-03 0.114D-03 0.449D-02 0.428D-01
 Coeff-Com:  0.228D+00 0.725D+00
 Coeff:      0.814D-04-0.485D-03-0.551D-03 0.114D-03 0.449D-02 0.428D-01
 Coeff:      0.228D+00 0.725D+00
 Gap=     0.216 Goal=   None    Shift=    0.000
 RMSDP=5.42D-06 MaxDP=5.37D-04 DE=-7.98D-07 OVMax= 9.48D-05

 Cycle   9  Pass 1  IDiag  1:
 RMSU=  1.50D-06    CP:  7.96D-01  3.44D-01  1.07D+00  7.26D-01  8.06D-01
                    CP:  8.20D-01  9.79D-01  9.92D-01
 E= -402.390908989430     Delta-E=       -0.000000052711 Rises=F Damp=F
 DIIS: error= 5.59D-06 at cycle   9 NSaved=   9.
 NSaved= 9 IEnMin= 9 EnMin= -402.390908989430     IErMin= 9 ErrMin= 5.59D-06
 ErrMax= 5.59D-06 EMaxC= 1.00D-01 BMatC= 1.34D-08 BMatP= 7.01D-08
 IDIUse=1 WtCom= 1.00D+00 WtEn= 0.00D+00
 Coeff-Com:  0.812D-04-0.255D-03-0.128D-02-0.225D-02-0.357D-02 0.376D-02
 Coeff-Com:  0.895D-01 0.403D+00 0.511D+00
 Coeff:      0.812D-04-0.255D-03-0.128D-02-0.225D-02-0.357D-02 0.376D-02
 Coeff:      0.895D-01 0.403D+00 0.511D+00
 Gap=     0.216 Goal=   None    Shift=    0.000
 RMSDP=1.35D-06 MaxDP=5.57D-05 DE=-5.27D-08 OVMax= 2.70D-05

 Cycle  10  Pass 1  IDiag  1:
 RMSU=  4.98D-07    CP:  7.96D-01  3.44D-01  1.07D+00  7.26D-01  8.06D-01
                    CP:  8.21D-01  1.00D+00  1.04D+00  9.35D-01
 E= -402.390908999522     Delta-E=       -0.000000010092 Rises=F Damp=F
 DIIS: error= 1.12D-06 at cycle  10 NSaved=  10.
 NSaved=10 IEnMin=10 EnMin= -402.390908999522     IErMin=10 ErrMin= 1.12D-06
 ErrMax= 1.12D-06 EMaxC= 1.00D-01 BMatC= 7.40D-10 BMatP= 1.34D-08
 IDIUse=1 WtCom= 1.00D+00 WtEn= 0.00D+00
 Coeff-Com:  0.204D-04-0.454D-04-0.445D-03-0.908D-03-0.197D-02-0.308D-02
 Coeff-Com:  0.958D-02 0.786D-01 0.220D+00 0.699D+00
 Coeff:      0.204D-04-0.454D-04-0.445D-03-0.908D-03-0.197D-02-0.308D-02
 Coeff:      0.958D-02 0.786D-01 0.220D+00 0.699D+00
 Gap=     0.216 Goal=   None    Shift=    0.000
 RMSDP=4.45D-07 MaxDP=4.49D-05 DE=-1.01D-08 OVMax= 9.51D-06

 Cycle  11  Pass 1  IDiag  1:
 RMSU=  1.90D-07    CP:  7.96D-01  3.44D-01  1.07D+00  7.25D-01  8.06D-01
                    CP:  8.23D-01  1.00D+00  1.04D+00  9.72D-01  8.97D-01
 E= -402.390909000148     Delta-E=       -0.000000000626 Rises=F Damp=F
 DIIS: error= 5.62D-07 at cycle  11 NSaved=  11.
 NSaved=11 IEnMin=11 EnMin= -402.390909000148     IErMin=11 ErrMin= 5.62D-07
 ErrMax= 5.62D-07 EMaxC= 1.00D-01 BMatC= 7.57D-11 BMatP= 7.40D-10
 IDIUse=1 WtCom= 1.00D+00 WtEn= 0.00D+00
 Coeff-Com:  0.222D-05 0.879D-06-0.123D-03-0.282D-03-0.735D-03-0.190D-02
 Coeff-Com: -0.295D-02 0.276D-02 0.517D-01 0.302D+00 0.649D+00
 Coeff:      0.222D-05 0.879D-06-0.123D-03-0.282D-03-0.735D-03-0.190D-02
 Coeff:     -0.295D-02 0.276D-02 0.517D-01 0.302D+00 0.649D+00
 Gap=     0.216 Goal=   None    Shift=    0.000
 RMSDP=1.59D-07 MaxDP=9.84D-06 DE=-6.26D-10 OVMax= 2.04D-06

 Cycle  12  Pass 1  IDiag  1:
 RMSU=  4.22D-08    CP:  7.96D-01  3.44D-01  1.07D+00  7.25D-01  8.06D-01
                    CP:  8.23D-01  1.00D+00  1.05D+00  9.89D-01  9.23D-01
                    CP:  9.65D-01
 E= -402.390909000205     Delta-E=       -0.000000000057 Rises=F Damp=F
 DIIS: error= 1.56D-07 at cycle  12 NSaved=  12.
 NSaved=12 IEnMin=12 EnMin= -402.390909000205     IErMin=12 ErrMin= 1.56D-07
 ErrMax= 1.56D-07 EMaxC= 1.00D-01 BMatC= 1.10D-11 BMatP= 7.57D-11
 IDIUse=1 WtCom= 1.00D+00 WtEn= 0.00D+00
 Coeff-Com: -0.156D-05 0.506D-05-0.931D-06-0.156D-04-0.917D-04-0.326D-03
 Coeff-Com: -0.187D-02-0.569D-02 0.119D-02 0.705D-01 0.326D+00 0.610D+00
 Coeff:     -0.156D-05 0.506D-05-0.931D-06-0.156D-04-0.917D-04-0.326D-03
 Coeff:     -0.187D-02-0.569D-02 0.119D-02 0.705D-01 0.326D+00 0.610D+00
 Gap=     0.216 Goal=   None    Shift=    0.000
 RMSDP=4.07D-08 MaxDP=3.17D-06 DE=-5.67D-11 OVMax= 1.51D-06

 Cycle  13  Pass 1  IDiag  1:
 RMSU=  1.26D-08    CP:  7.96D-01  3.44D-01  1.07D+00  7.25D-01  8.06D-01
                    CP:  8.23D-01  1.01D+00  1.05D+00  9.95D-01  9.40D-01
                    CP:  9.93D-01  8.89D-01
 E= -402.390909000214     Delta-E=       -0.000000000009 Rises=F Damp=F
 DIIS: error= 3.85D-08 at cycle  13 NSaved=  13.
 NSaved=13 IEnMin=13 EnMin= -402.390909000214     IErMin=13 ErrMin= 3.85D-08
 ErrMax= 3.85D-08 EMaxC= 1.00D-01 BMatC= 7.33D-13 BMatP= 1.10D-11
 IDIUse=1 WtCom= 1.00D+00 WtEn= 0.00D+00
 Coeff-Com: -0.725D-06 0.207D-05 0.558D-05 0.680D-05-0.105D-04-0.677D-04
 Coeff-Com: -0.887D-03-0.316D-02-0.415D-02 0.893D-02 0.922D-01 0.265D+00
 Coeff-Com:  0.642D+00
 Coeff:     -0.725D-06 0.207D-05 0.558D-05 0.680D-05-0.105D-04-0.677D-04
 Coeff:     -0.887D-03-0.316D-02-0.415D-02 0.893D-02 0.922D-01 0.265D+00
 Coeff:      0.642D+00
 Gap=     0.216 Goal=   None    Shift=    0.000
 RMSDP=1.16D-08 MaxDP=8.57D-07 DE=-9.44D-12 OVMax= 2.50D-07

 Cycle  14  Pass 1  IDiag  1:
 RMSU=  2.83D-09    CP:  7.96D-01  3.44D-01  1.07D+00  7.25D-01  8.06D-01
                    CP:  8.23D-01  1.01D+00  1.05D+00  9.96D-01  9.42D-01
                    CP:  1.01D+00  9.48D-01  9.60D-01
 E= -402.390909000217     Delta-E=       -0.000000000003 Rises=F Damp=F
 DIIS: error= 1.42D-08 at cycle  14 NSaved=  14.
 NSaved=14 IEnMin=14 EnMin= -402.390909000217     IErMin=14 ErrMin= 1.42D-08
 ErrMax= 1.42D-08 EMaxC= 1.00D-01 BMatC= 9.34D-14 BMatP= 7.33D-13
 IDIUse=1 WtCom= 1.00D+00 WtEn= 0.00D+00
 Coeff-Com: -0.395D-07 0.240D-06 0.221D-05 0.397D-05 0.314D-05 0.143D-04
 Coeff-Com: -0.136D-03-0.430D-03-0.183D-02-0.397D-02 0.214D-02 0.558D-01
 Coeff-Com:  0.326D+00 0.623D+00
 Coeff:     -0.395D-07 0.240D-06 0.221D-05 0.397D-05 0.314D-05 0.143D-04
 Coeff:     -0.136D-03-0.430D-03-0.183D-02-0.397D-02 0.214D-02 0.558D-01
 Coeff:      0.326D+00 0.623D+00
 Gap=     0.216 Goal=   None    Shift=    0.000
 RMSDP=5.00D-09 MaxDP=5.60D-07 DE=-2.50D-12 OVMax= 6.89D-08

 Error on total polarization charges =  0.01462
 SCF Done:  E(RB3LYP) =  -402.390909000     A.U. after   14 cycles
             Convg  =    0.4999D-08             -V/T =  2.0044
 KE= 4.006181346387D+02 PE=-1.749913439856D+03 EE= 5.419523418252D+02
 Leave Link  502 at Sat Apr 16 01:28:02 2016, MaxMem=   33554432 cpu:     682.0
 (Enter c:\G09w04\l801.exe)
 Range of M.O.s used for correlation:     1   253
 NBasis=   253 NAE=    32 NBE=    32 NFC=     0 NFV=     0
 NROrb=    253 NOA=    32 NOB=    32 NVA=   221 NVB=   221

 **** Warning!!: The largest alpha MO coefficient is  0.10332754D+03

 Leave Link  801 at Sat Apr 16 01:28:02 2016, MaxMem=   33554432 cpu:       0.0
 (Enter c:\G09w04\l1101.exe)
 Using compressed storage, NAtomX=    19.
 Will process  20 centers per pass.
 Leave Link 1101 at Sat Apr 16 01:28:04 2016, MaxMem=   33554432 cpu:       1.0
 (Enter c:\G09w04\l1102.exe)
 Symmetrizing basis deriv contribution to polar:
 IMax=3 JMax=2 DiffMx= 0.00D+00
 Leave Link 1102 at Sat Apr 16 01:28:04 2016, MaxMem=   33554432 cpu:       0.0
 (Enter c:\G09w04\l1110.exe)
 Forming Gx(P) for the SCF density, NAtomX=    19.
 Integral derivatives from FoFDir/FoFCou, PRISM(SPDF).
 Do as many integral derivatives as possible in FoFDir.
 G2DrvN: MDV=      33554264.
 G2DrvN: will do    20 centers at a time, making    1 passes doing MaxLOS=2.
 Calling FoFCou, ICntrl=  3107 FMM=F I1Cent=   0 AccDes= 0.00D+00.
 FoFCou: FMM=F IPFlag=           0 FMFlag=      100000 FMFlg1=           0
         NFxFlg=           0 DoJE=F BraDBF=F KetDBF=F FulRan=T
         Omega=  0.000000  0.000000  1.000000  0.000000  0.000000 ICntrl=    3107 IOpCl=  0
         NMat0=    1 NMatS0=    1 NMatT0=    0 NMatD0=    1 NMtDS0=    0 NMtDT0=    0
         I1Cent=           0 NGrid=           0.
 Symmetry not used in FoFCou.
 FoFDir/FoFCou used for L=0 through L=2.
 G2PCM: DoFxE=T DoFxN=T DoGrad=T DoPD/DQ/DG=FFF NFrqRd=   0 IEInf=0 DoCFld=F IF1Alg=4.
 GePol: Maximum number of non-zero 1st derivatives   =     200
 End of G2Drv Frequency-dependent properties file   721 does not exist.
 End of G2Drv Frequency-dependent properties file   722 does not exist.
 Leave Link 1110 at Sat Apr 16 01:43:50 2016, MaxMem=   33554432 cpu:     946.0
 (Enter c:\G09w04\l1002.exe)
 Minotr:  Closed shell wavefunction.
          IDoAtm=1111111111111111111
 NEqPCM:  Using equilibrium solvation (IEInf=0, Eps=  78.3553, EpsInf=   1.7778)
          Direct CPHF calculation.
          Differentiating once with respect to nuclear coordinates.
          Requested convergence is 1.0D-06 RMS, and 1.0D-05 maximum.
          Secondary convergence is 1.0D-12 RMS, and 1.0D-12 maximum.
          NewPWx=T KeepS1=F KeepF1=F KeepIn=T MapXYZ=F SortEE=F KeepMc=T.
          MDV=      33554294 using IRadAn=       2.
 Generate precomputed XC quadrature information.
          Solving linear equations simultaneously, MaxMat=       0.
 Symmetry not used in FoFDir.
 MinBra= 0 MaxBra= 2 Meth= 1.
 IRaf=       0 NMat=  60 IRICut=     150 DoRegI=T DoRafI=T ISym2E= 0 JSym2E=0.
          There are    60 degrees of freedom in the 1st order CPHF.  IDoFFX=5.
     54 vectors produced by pass  0 Test12= 1.18D-10 1.67D-07 XBig12= 2.39D-01 1.10D-01.
 AX will form    54 AO Fock derivatives at one time.
     54 vectors produced by pass  1 Test12= 1.18D-10 1.67D-07 XBig12= 6.50D-02 1.24D-01.
     54 vectors produced by pass  2 Test12= 1.18D-10 1.67D-07 XBig12= 3.37D-04 2.38D-03.
     54 vectors produced by pass  3 Test12= 1.18D-10 1.67D-07 XBig12= 1.80D-06 1.71D-04.
     29 vectors produced by pass  4 Test12= 1.18D-10 1.67D-07 XBig12= 5.32D-09 7.39D-06.
      2 vectors produced by pass  5 Test12= 1.18D-10 1.67D-07 XBig12= 8.96D-12 2.58D-07.
 Inverted reduced A of dimension   247 with in-core refinement.
 End of Minotr Frequency-dependent properties file   721 does not exist.
 End of Minotr Frequency-dependent properties file   722 does not exist.
 Leave Link 1002 at Sat Apr 16 02:07:19 2016, MaxMem=   33554432 cpu:    1408.0
 (Enter c:\G09w04\l601.exe)
 Copying SCF densities to generalized density rwf, IOpCl= 0 IROHF=0.

 **********************************************************************

            Population analysis using the SCF density.

 **********************************************************************

 Alpha  occ. eigenvalues --  -19.18896 -19.15651 -14.31311 -10.32642 -10.22925
 Alpha  occ. eigenvalues --  -10.18750 -10.16145 -10.15606  -1.14022  -1.05739
 Alpha  occ. eigenvalues --   -0.90229  -0.79930  -0.71357  -0.68493  -0.62386
 Alpha  occ. eigenvalues --   -0.58458  -0.52328  -0.51564  -0.49341  -0.48430
 Alpha  occ. eigenvalues --   -0.46126  -0.43239  -0.42796  -0.40060  -0.38471
 Alpha  occ. eigenvalues --   -0.36458  -0.35763  -0.34924  -0.34259  -0.33664
 Alpha  occ. eigenvalues --   -0.27200  -0.24639
 Alpha virt. eigenvalues --   -0.03020  -0.01647  -0.00582   0.00647   0.00968
 Alpha virt. eigenvalues --    0.03018   0.03138   0.04138   0.04443   0.04968
 Alpha virt. eigenvalues --    0.05604   0.07048   0.07370   0.08095   0.08497
 Alpha virt. eigenvalues --    0.08837   0.09430   0.10391   0.10680   0.11642
 Alpha virt. eigenvalues --    0.12445   0.12864   0.13463   0.13887   0.14712
 Alpha virt. eigenvalues --    0.14924   0.15218   0.16005   0.16420   0.16785
 Alpha virt. eigenvalues --    0.16839   0.17765   0.18662   0.19185   0.19945
 Alpha virt. eigenvalues --    0.20556   0.21379   0.21813   0.22325   0.22869
 Alpha virt. eigenvalues --    0.23452   0.24107   0.24960   0.25915   0.26521
 Alpha virt. eigenvalues --    0.27043   0.27910   0.28602   0.29892   0.30336
 Alpha virt. eigenvalues --    0.30698   0.31703   0.32485   0.33296   0.33535
 Alpha virt. eigenvalues --    0.35059   0.35655   0.36518   0.39538   0.39909
 Alpha virt. eigenvalues --    0.41213   0.43903   0.45584   0.46989   0.49890
 Alpha virt. eigenvalues --    0.50668   0.52735   0.54189   0.54973   0.55765
 Alpha virt. eigenvalues --    0.58877   0.59439   0.60321   0.63571   0.64900
 Alpha virt. eigenvalues --    0.65464   0.66345   0.67617   0.69172   0.70245
 Alpha virt. eigenvalues --    0.70343   0.72276   0.73134   0.74193   0.74946
 Alpha virt. eigenvalues --    0.76430   0.78005   0.79641   0.82988   0.84854
 Alpha virt. eigenvalues --    0.87247   0.89260   0.91888   1.00275   1.00754
 Alpha virt. eigenvalues --    1.04372   1.04947   1.09214   1.09659   1.11616
 Alpha virt. eigenvalues --    1.14456   1.16790   1.18760   1.19387   1.21784
 Alpha virt. eigenvalues --    1.24431   1.25873   1.27460   1.29991   1.37225
 Alpha virt. eigenvalues --    1.39783   1.40405   1.43837   1.45402   1.46323
 Alpha virt. eigenvalues --    1.47030   1.49661   1.54537   1.55252   1.55726
 Alpha virt. eigenvalues --    1.57798   1.59429   1.60089   1.62447   1.63379
 Alpha virt. eigenvalues --    1.65225   1.65913   1.67772   1.68188   1.70640
 Alpha virt. eigenvalues --    1.72349   1.74217   1.76703   1.80836   1.80897
 Alpha virt. eigenvalues --    1.84546   1.86537   1.89593   1.92964   1.94492
 Alpha virt. eigenvalues --    1.96319   1.98176   2.01482   2.05350   2.08539
 Alpha virt. eigenvalues --    2.11647   2.14091   2.14663   2.16685   2.19279
 Alpha virt. eigenvalues --    2.25280   2.26541   2.32646   2.35542   2.39474
 Alpha virt. eigenvalues --    2.46353   2.49157   2.50735   2.52408   2.52897
 Alpha virt. eigenvalues --    2.56058   2.57266   2.58078   2.59420   2.61012
 Alpha virt. eigenvalues --    2.62515   2.66090   2.68190   2.70559   2.71317
 Alpha virt. eigenvalues --    2.72372   2.74969   2.77607   2.78780   2.84968
 Alpha virt. eigenvalues --    2.86610   2.91615   2.95043   2.96733   2.99538
 Alpha virt. eigenvalues --    3.01393   3.02579   3.05728   3.10781   3.14656
 Alpha virt. eigenvalues --    3.16135   3.17675   3.20554   3.23592   3.33876
 Alpha virt. eigenvalues --    3.35737   3.44247   3.58108   3.62020   3.78579
 Alpha virt. eigenvalues --    3.79182   3.81174   3.82962   3.83521   3.86271
 Alpha virt. eigenvalues --    4.04058   4.06985   4.13809   4.29005   4.31932
 Alpha virt. eigenvalues --    4.72504   4.80599   4.99319   5.05375   5.14509
 Alpha virt. eigenvalues --    5.40066   5.59309   5.85761  23.69728  23.79328
 Alpha virt. eigenvalues --   23.84439  23.97934  23.98423  35.60102  49.87392
 Alpha virt. eigenvalues --   49.98157
          Condensed to atoms (all electrons):
              1          2          3          4          5          6
     1  N    6.745187   0.381300  -0.550135   0.019762   0.162276   0.217216
     2  H    0.381300   0.443932  -0.077721   0.010654   0.022041  -0.008313
     3  C   -0.550135  -0.077721  13.189696   0.041038  -3.632721  -2.826896
     4  H    0.019762   0.010654   0.041038   0.695258   0.140228   0.036655
     5  C    0.162276   0.022041  -3.632721   0.140228   8.495885   1.028597
     6  C    0.217216  -0.008313  -2.826896   0.036655   1.028597   7.110048
     7  C    0.052585   0.003006   0.066631  -0.034704  -0.389591   0.130250
     8  O   -0.038397   0.009565  -0.021589   0.042093  -0.039593   0.179457
     9  H   -0.001314   0.000371  -0.089824   0.005326   0.119466   0.023259
    10  H    0.000843   0.000522   0.044032   0.000534  -0.106868  -0.011107
    11  H   -0.014351   0.000409   0.041920  -0.005480  -0.084314  -0.033722
    12  H    0.413668  -0.042314  -0.142134  -0.004257   0.031879   0.040330
    13  O   -0.003717  -0.006912  -0.115590  -0.069110  -0.066822   0.448370
    14  H    0.013294   0.000621  -0.173869  -0.000121   0.037786   0.129063
    15  H   -0.010118   0.009120  -0.108708   0.013291   0.624134  -0.024350
    16  C   -0.076377  -0.012208   0.791916  -0.028235  -0.643824  -0.227502
    17  H    0.008748   0.000621  -0.041871   0.000704  -0.029416  -0.001226
    18  H    0.001938   0.000252   0.014887  -0.000185  -0.085965   0.001441
    19  H   -0.006959  -0.000522   0.055245   0.000497  -0.043690  -0.023561
              7          8          9         10         11         12
     1  N    0.052585  -0.038397  -0.001314   0.000843  -0.014351   0.413668
     2  H    0.003006   0.009565   0.000371   0.000522   0.000409  -0.042314
     3  C    0.066631  -0.021589  -0.089824   0.044032   0.041920  -0.142134
     4  H   -0.034704   0.042093   0.005326   0.000534  -0.005480  -0.004257
     5  C   -0.389591  -0.039593   0.119466  -0.106868  -0.084314   0.031879
     6  C    0.130250   0.179457   0.023259  -0.011107  -0.033722   0.040330
     7  C    5.935379  -0.040829   0.337910   0.421293   0.426190  -0.000024
     8  O   -0.040829   7.928782   0.004144  -0.004328   0.000346  -0.000108
     9  H    0.337910   0.004144   0.547726  -0.036611  -0.039988  -0.000383
    10  H    0.421293  -0.004328  -0.036611   0.552899  -0.026313   0.000347
    11  H    0.426190   0.000346  -0.039988  -0.026313   0.575420  -0.001273
    12  H   -0.000024  -0.000108  -0.000383   0.000347  -0.001273   0.425049
    13  O   -0.013284  -0.133747  -0.009102  -0.000365  -0.000766   0.001291
    14  H    0.005785   0.244481   0.000869   0.000028  -0.003827   0.000822
    15  H   -0.133872   0.010277   0.013900  -0.010364  -0.018105  -0.001259
    16  C   -0.079253   0.005907  -0.034782   0.007442   0.016772   0.001571
    17  H    0.012587   0.000259  -0.002604   0.002010  -0.002063   0.000818
    18  H    0.004002   0.000780   0.002315   0.001622   0.002968   0.000135
    19  H   -0.019448   0.000148   0.007375   0.001199  -0.001620  -0.001069
             13         14         15         16         17         18
     1  N   -0.003717   0.013294  -0.010118  -0.076377   0.008748   0.001938
     2  H   -0.006912   0.000621   0.009120  -0.012208   0.000621   0.000252
     3  C   -0.115590  -0.173869  -0.108708   0.791916  -0.041871   0.014887
     4  H   -0.069110  -0.000121   0.013291  -0.028235   0.000704  -0.000185
     5  C   -0.066822   0.037786   0.624134  -0.643824  -0.029416  -0.085965
     6  C    0.448370   0.129063  -0.024350  -0.227502  -0.001226   0.001441
     7  C   -0.013284   0.005785  -0.133872  -0.079253   0.012587   0.004002
     8  O   -0.133747   0.244481   0.010277   0.005907   0.000259   0.000780
     9  H   -0.009102   0.000869   0.013900  -0.034782  -0.002604   0.002315
    10  H   -0.000365   0.000028  -0.010364   0.007442   0.002010   0.001622
    11  H   -0.000766  -0.003827  -0.018105   0.016772  -0.002063   0.002968
    12  H    0.001291   0.000822  -0.001259   0.001571   0.000818   0.000135
    13  O    8.168433  -0.016276  -0.007153   0.015641  -0.000274  -0.000397
    14  H   -0.016276   0.447543  -0.001632  -0.005820  -0.000195   0.000148
    15  H   -0.007153  -0.001632   0.567242  -0.101053  -0.004561  -0.012541
    16  C    0.015641  -0.005820  -0.101053   5.730757   0.415405   0.419766
    17  H   -0.000274  -0.000195  -0.004561   0.415405   0.544723  -0.024462
    18  H   -0.000397   0.000148  -0.012541   0.419766  -0.024462   0.571984
    19  H    0.001611  -0.000260   0.007932   0.388772  -0.037291  -0.037739
             19
     1  N   -0.006959
     2  H   -0.000522
     3  C    0.055245
     4  H    0.000497
     5  C   -0.043690
     6  C   -0.023561
     7  C   -0.019448
     8  O    0.000148
     9  H    0.007375
    10  H    0.001199
    11  H   -0.001620
    12  H   -0.001069
    13  O    0.001611
    14  H   -0.000260
    15  H    0.007932
    16  C    0.388772
    17  H   -0.037291
    18  H   -0.037739
    19  H    0.561135
 Mulliken atomic charges:
              1
     1  N   -0.315447
     2  H    0.265576
     3  C   -0.464307
     4  H    0.136053
     5  C    0.460514
     6  C   -0.188008
     7  C   -0.684612
     8  O   -0.147650
     9  H    0.151948
    10  H    0.163185
    11  H    0.167797
    12  H    0.276912
    13  O   -0.191832
    14  H    0.321560
    15  H    0.187820
    16  C   -0.584893
    17  H    0.158087
    18  H    0.139051
    19  H    0.148245
 Sum of Mulliken atomic charges =   0.00000
 Mulliken charges with hydrogens summed into heavy atoms:
              1
     1  N    0.227042
     3  C   -0.464307
     5  C    0.648334
     6  C   -0.188008
     7  C   -0.201681
     8  O    0.173910
    13  O   -0.055780
    16  C   -0.139510
 Sum of Mulliken charges with hydrogens summed into heavy atoms =   0.00000
 APT atomic charges:
              1
     1  N   -0.954357
     2  H    0.438536
     3  C   -0.520044
     4  H    0.194272
     5  C   -0.094869
     6  C   -0.133797
     7  C   -1.113846
     8  O   -0.654339
     9  H    0.321718
    10  H    0.524806
    11  H    0.303126
    12  H    0.597204
    13  O   -0.005267
    14  H    0.837201
    15  H    0.336711
    16  C   -1.276319
    17  H    0.358694
    18  H    0.510205
    19  H    0.330365
 Sum of APT charges=   0.00000
 APT Atomic charges with hydrogens summed into heavy atoms:
              1
     1  N    0.081383
     2  H    0.000000
     3  C   -0.520044
     4  H    0.000000
     5  C    0.241842
     6  C   -0.133797
     7  C    0.035803
     8  O    0.182862
     9  H    0.000000
    10  H    0.000000
    11  H    0.000000
    12  H    0.000000
    13  O    0.189005
    14  H    0.000000
    15  H    0.000000
    16  C   -0.077055
    17  H    0.000000
    18  H    0.000000
    19  H    0.000000
 Sum of APT charges=   0.00000
 Electronic spatial extent (au):  <R**2>=           1074.2277
 Charge=              0.0000 electrons
 Dipole moment (field-independent basis, Debye):
    X=             -1.5928    Y=             -0.1079    Z=              2.7513  Tot=              3.1810
 Quadrupole moment (field-independent basis, Debye-Ang):
   XX=            -48.0664   YY=            -50.9896   ZZ=            -52.1412
   XY=             -4.6615   XZ=             -4.2690   YZ=             -1.1295
 Traceless Quadrupole moment (field-independent basis, Debye-Ang):
   XX=              2.3327   YY=             -0.5905   ZZ=             -1.7422
   XY=             -4.6615   XZ=             -4.2690   YZ=             -1.1295
 Octapole moment (field-independent basis, Debye-Ang**2):
  XXX=            -14.2327  YYY=              8.7689  ZZZ=             -3.1052  XYY=             -9.1751
  XXY=              1.1053  XXZ=             17.2431  XZZ=             -0.6914  YZZ=              3.4404
  YYZ=              1.6103  XYZ=              7.2349
 Hexadecapole moment (field-independent basis, Debye-Ang**3):
 XXXX=           -756.5676 YYYY=           -424.1048 ZZZZ=           -197.5650 XXXY=             -1.9161
 XXXZ=            -59.9756 YYYX=            -22.4441 YYYZ=              0.7656 ZZZX=            -14.3059
 ZZZY=              1.8886 XXYY=           -202.7427 XXZZ=           -155.8669 YYZZ=            -96.7986
 XXYZ=            -19.9734 YYXZ=             -2.0904 ZZXY=             -0.0768
 N-N= 4.049520543923D+02 E-N=-1.749913441841D+03  KE= 4.006181346387D+02
  Exact polarizability:   0.000   0.000   0.000   0.000   0.000   0.000
 Approx polarizability: 120.778  14.575 111.119  13.132  13.428 128.017
 No NMR shielding tensors so no spin-rotation constants.
 Leave Link  601 at Sat Apr 16 02:07:20 2016, MaxMem=   33554432 cpu:       1.0
 (Enter c:\G09w04\l701.exe)
 Compute integral second derivatives.
 ... and contract with generalized density number  0.
 D2PCM: C-PCM CHGder 2nd derivatives, FixD1E=F FixD2E=F DoIter=F DoCFld=F I1PDM=0
 GePol: Maximum number of non-zero 2nd derivatives   =     200
 Leave Link  701 at Sat Apr 16 02:08:11 2016, MaxMem=   33554432 cpu:      51.0
 (Enter c:\G09w04\l702.exe)
 L702 exits ... SP integral derivatives will be done elsewhere.
 Leave Link  702 at Sat Apr 16 02:08:11 2016, MaxMem=   33554432 cpu:       0.0
 (Enter c:\G09w04\l703.exe)
 Compute integral second derivatives, UseDBF=F ICtDFT=           0.
 Integral derivatives from FoFDir, PRISM(SPDF).
 Calling FoFJK, ICntrl=    100147 FMM=F ISym2X=0 I1Cent= 0 IOpClX= 0 NMat=1 NMatS=1 NMatT=0.
 FoFCou: FMM=F IPFlag=           0 FMFlag=      100000 FMFlg1=         800
         NFxFlg=           0 DoJE=F BraDBF=F KetDBF=F FulRan=T
         Omega=  0.000000  0.000000  1.000000  0.000000  0.000000 ICntrl=  100147 IOpCl=  0
         NMat0=    1 NMatS0=    1 NMatT0=    0 NMatD0=    1 NMtDS0=    0 NMtDT0=    0
         I1Cent=           0 NGrid=           0.
 Symmetry not used in FoFCou.
 Leave Link  703 at Sat Apr 16 02:24:02 2016, MaxMem=   33554432 cpu:     951.0
 (Enter c:\G09w04\l716.exe)
 Dipole        =-6.26668063D-01-4.24476258D-02 1.08245690D+00
 Polarizability= 0.00000000D+00 0.00000000D+00 0.00000000D+00
                 0.00000000D+00 0.00000000D+00 0.00000000D+00
 -------------------------------------------------------------------
 Center     Atomic                   Forces (Hartrees/Bohr)
 Number     Number              X              Y              Z
 -------------------------------------------------------------------
      1        7          -0.000833335   -0.006290888   -0.019321015
      2        1           0.000342200   -0.001613217    0.002570785
      3        6          -0.049787146   -0.034146829   -0.031111269
      4        1           0.062662071    0.037976612    0.010024872
      5        6          -0.001663474   -0.001224555   -0.018846102
      6        6           0.008692487    0.016176114    0.065495114
      7        6           0.000893449   -0.000344413    0.000775601
      8        8          -0.009386828   -0.005820579   -0.006194467
      9        1          -0.000043521    0.000675489    0.000393109
     10        1          -0.000157832   -0.000330798    0.000482241
     11        1          -0.000120340   -0.000105889    0.000199456
     12        1           0.000398240    0.000696145    0.000383861
     13        8          -0.009230918   -0.007460795   -0.009824437
     14        1          -0.001121404    0.000628115    0.003388441
     15        1          -0.001645887    0.001565792    0.000920375
     16        6           0.001253026   -0.000441859   -0.000176026
     17        1          -0.000071140    0.000027159    0.000021308
     18        1           0.000227332    0.000053449    0.000392724
     19        1          -0.000406978   -0.000019052    0.000425428
 -------------------------------------------------------------------
 Cartesian Forces:  Max     0.065495114 RMS     0.016708922
 Leave Link  716 at Sat Apr 16 02:24:02 2016, MaxMem=   33554432 cpu:       0.0
 (Enter c:\G09w04\l103.exe)

 GradGradGradGradGradGradGradGradGradGradGradGradGradGradGradGradGradGrad
 Berny optimization.
 Red2BG is reusing G-inverse.
 Internal  Forces:  Max     0.058521988 RMS     0.008745026
 Search for a saddle point.
 Step number   1 out of a maximum of  105
 All quantities printed in internal units (Hartrees-Bohrs-Radians)
 Swaping is turned off.
 Second derivative matrix not updated -- analytic derivatives used.
 ITU=  0
     Eigenvalues ---   -0.04096   0.00080   0.00127   0.00204   0.00288
     Eigenvalues ---    0.00392   0.01346   0.01630   0.01977   0.02858
     Eigenvalues ---    0.03117   0.03529   0.03611   0.04170   0.04298
     Eigenvalues ---    0.04482   0.04550   0.04637   0.04641   0.08489
     Eigenvalues ---    0.09422   0.11732   0.12109   0.12800   0.13297
     Eigenvalues ---    0.13426   0.13952   0.14150   0.14712   0.15026
     Eigenvalues ---    0.17364   0.17672   0.18337   0.19040   0.23527
     Eigenvalues ---    0.25494   0.28071   0.29568   0.31960   0.32745
     Eigenvalues ---    0.32848   0.32977   0.33233   0.33523   0.34111
     Eigenvalues ---    0.34434   0.37942   0.44278   0.44779   0.50557
     Eigenvalues ---    0.74257
 Eigenvectors required to have negative eigenvalues:
                          R4        R8        A18       D12       D14
   1                   -0.71754   0.54785  -0.27458  -0.10798  -0.10685
                          D13       D7        D4        D1        A4
   1                   -0.10621  -0.10543   0.10215   0.09165  -0.06736
 RFO step:  Lambda0=4.357028411D-02 Lambda=-2.46020082D-02.
 Linear search not attempted -- option 19 set.
 Maximum step size (   0.300) exceeded in Quadratic search.
    -- Step size scaled by   0.357
 Iteration  1 RMS(Cart)=  0.02833361 RMS(Int)=  0.00469089
 Iteration  2 RMS(Cart)=  0.00209070 RMS(Int)=  0.00054016
 Iteration  3 RMS(Cart)=  0.00028391 RMS(Int)=  0.00037070
 Iteration  4 RMS(Cart)=  0.00000117 RMS(Int)=  0.00037068
 Iteration  5 RMS(Cart)=  0.00000000 RMS(Int)=  0.00037068
 Variable       Old X    -DE/DX   Delta X   Delta X   Delta X     New X
                                 (Linear)    (Quad)   (Total)
    R1        1.92024   0.00219   0.00000   0.00300   0.00300   1.92324
    R2        2.77438  -0.01075   0.00000  -0.00741  -0.00741   2.76697
    R3        1.91901  -0.00013   0.00000  -0.00093  -0.00093   1.91808
    R4        3.02356  -0.05852   0.00000   0.12029   0.11922   3.14278
    R5        2.92718  -0.00854   0.00000  -0.01016  -0.01016   2.91702
    R6        2.88834  -0.00528   0.00000  -0.01930  -0.01849   2.86984
    R7        3.12488   0.01797   0.00000   0.02436   0.02503   3.14991
    R8        2.99468   0.01416   0.00000  -0.22496  -0.22616   2.76852
    R9        2.90189  -0.00023   0.00000  -0.00001  -0.00001   2.90187
   R10        2.07322   0.00136   0.00000   0.00490   0.00490   2.07812
   R11        2.89896   0.00059   0.00000   0.00096   0.00096   2.89993
   R12        2.55094  -0.00016   0.00000  -0.02966  -0.02966   2.52128
   R13        2.29066   0.00969   0.00000   0.02251   0.02348   2.31414
   R14        2.06932  -0.00052   0.00000  -0.00026  -0.00026   2.06906
   R15        2.06513   0.00026   0.00000   0.00038   0.00038   2.06551
   R16        2.06639   0.00020   0.00000   0.00054   0.00054   2.06693
   R17        1.83391   0.00110   0.00000   0.00076   0.00076   1.83467
   R18        2.06041   0.00003   0.00000   0.00022   0.00022   2.06063
   R19        2.06638   0.00034   0.00000   0.00046   0.00046   2.06684
   R20        2.07029  -0.00048   0.00000  -0.00028  -0.00028   2.07000
    A1        1.92979  -0.00320   0.00000   0.01126   0.01120   1.94099
    A2        1.87076   0.00079   0.00000   0.00329   0.00319   1.87395
    A3        1.93438   0.00207   0.00000   0.00587   0.00581   1.94019
    A4        2.17025  -0.00941   0.00000   0.00985   0.00941   2.17967
    A5        1.94036   0.01400   0.00000   0.00254   0.00239   1.94275
    A6        1.95404  -0.00781   0.00000  -0.00397  -0.00362   1.95042
    A7        2.12766  -0.00821   0.00000  -0.00632  -0.00591   2.12175
    A8        1.94718  -0.00845   0.00000  -0.00112  -0.00123   1.94595
    A9        1.74375   0.00342   0.00000  -0.00110  -0.00305   1.74069
   A10        1.94951   0.00147   0.00000   0.00522   0.00522   1.95473
   A11        1.86824  -0.00188   0.00000   0.00317   0.00318   1.87142
   A12        1.93230   0.00092   0.00000   0.00132   0.00133   1.93363
   A13        1.88890   0.00018   0.00000  -0.00357  -0.00359   1.88530
   A14        1.92953  -0.00121   0.00000  -0.00214  -0.00215   1.92738
   A15        1.89294   0.00046   0.00000  -0.00425  -0.00426   1.88868
   A16        1.96168   0.02532   0.00000   0.06498   0.06477   2.02645
   A17        2.18600  -0.02645   0.00000  -0.07083  -0.06960   2.11640
   A18        3.01099  -0.00025   0.00000   0.11104   0.11023   3.12122
   A19        2.13526   0.00113   0.00000   0.00609   0.00501   2.14027
   A20        1.93706  -0.00083   0.00000  -0.00196  -0.00196   1.93509
   A21        1.92196   0.00038   0.00000   0.00131   0.00131   1.92327
   A22        1.96322   0.00004   0.00000   0.00081   0.00081   1.96403
   A23        1.88000   0.00037   0.00000   0.00157   0.00157   1.88157
   A24        1.88462   0.00036   0.00000  -0.00006  -0.00006   1.88456
   A25        1.87389  -0.00029   0.00000  -0.00164  -0.00164   1.87226
   A26        1.89459   0.00628   0.00000   0.01760   0.01760   1.91218
   A27        1.94806  -0.00009   0.00000  -0.00050  -0.00050   1.94755
   A28        1.92216   0.00013   0.00000   0.00127   0.00128   1.92344
   A29        1.93168  -0.00044   0.00000  -0.00189  -0.00189   1.92979
   A30        1.89162  -0.00005   0.00000  -0.00035  -0.00035   1.89127
   A31        1.88741   0.00020   0.00000   0.00017   0.00017   1.88758
   A32        1.88102   0.00027   0.00000   0.00136   0.00136   1.88238
    D1        2.30123   0.01135   0.00000   0.00479   0.00458   2.30581
    D2       -1.15409  -0.00191   0.00000   0.02397   0.02411  -1.12998
    D3        1.03688  -0.00824   0.00000   0.02142   0.02157   1.05844
    D4        0.22926   0.01109   0.00000  -0.01024  -0.01050   0.21875
    D5        3.05712  -0.00216   0.00000   0.00894   0.00902   3.06614
    D6       -1.03509  -0.00849   0.00000   0.00639   0.00648  -1.02861
    D7       -1.74006  -0.00694   0.00000   0.02258   0.02277  -1.71729
    D8        1.74737   0.00398   0.00000  -0.00050  -0.00044   1.74693
    D9        3.06550   0.00204   0.00000  -0.00903  -0.00892   3.05658
   D10        1.00081   0.00215   0.00000  -0.00958  -0.00948   0.99134
   D11       -1.05920   0.00220   0.00000  -0.00708  -0.00697  -1.06617
   D12       -0.38094  -0.01123   0.00000   0.01293   0.01298  -0.36795
   D13       -2.44563  -0.01112   0.00000   0.01238   0.01243  -2.43319
   D14        1.77755  -0.01107   0.00000   0.01488   0.01494   1.79249
   D15        0.87071   0.00805   0.00000  -0.00489  -0.00505   0.86566
   D16       -1.19398   0.00816   0.00000  -0.00544  -0.00560  -1.19958
   D17        3.02920   0.00821   0.00000  -0.00293  -0.00310   3.02610
   D18       -1.04699  -0.00353   0.00000  -0.01088  -0.01064  -1.05763
   D19        2.07131  -0.00346   0.00000   0.00098   0.00109   2.07240
   D20        1.14023   0.00246   0.00000  -0.01145  -0.01120   1.12903
   D21       -2.02465   0.00252   0.00000   0.00042   0.00053  -2.02412
   D22       -3.14121   0.00043   0.00000  -0.00806  -0.00836   3.13361
   D23        1.04802   0.00088   0.00000  -0.00025  -0.00025   1.04778
   D24        3.12817   0.00105   0.00000   0.00130   0.00131   3.12948
   D25       -1.06563   0.00097   0.00000   0.00067   0.00067  -1.06496
   D26        3.10033  -0.00045   0.00000   0.00443   0.00442   3.10476
   D27       -1.10270  -0.00027   0.00000   0.00598   0.00598  -1.09673
   D28        0.98668  -0.00035   0.00000   0.00534   0.00534   0.99202
   D29       -1.11203  -0.00048   0.00000  -0.00414  -0.00414  -1.11617
   D30        0.96812  -0.00031   0.00000  -0.00259  -0.00259   0.96554
   D31        3.05750  -0.00039   0.00000  -0.00323  -0.00322   3.05428
   D32        0.98907  -0.00113   0.00000  -0.00268  -0.00267   0.98639
   D33        3.09101  -0.00116   0.00000  -0.00258  -0.00258   3.08843
   D34       -1.11401  -0.00102   0.00000  -0.00127  -0.00127  -1.11528
   D35       -3.12419   0.00056   0.00000   0.00344   0.00344  -3.12075
   D36       -1.02224   0.00052   0.00000   0.00354   0.00353  -1.01870
   D37        1.05592   0.00066   0.00000   0.00485   0.00485   1.06077
   D38       -1.05582   0.00035   0.00000  -0.00474  -0.00473  -1.06055
   D39        1.04613   0.00031   0.00000  -0.00464  -0.00464   1.04149
   D40        3.12428   0.00045   0.00000  -0.00333  -0.00333   3.12096
   D41        3.11198  -0.00033   0.00000  -0.00089  -0.00063   3.11135
   D42        2.95326  -0.00039   0.00000   0.00045   0.00045   2.95372
   D43       -0.00710   0.00005   0.00000  -0.01114  -0.01141  -0.01851
         Item               Value     Threshold  Converged?
 Maximum Force            0.058522     0.000450     NO 
 RMS     Force            0.008745     0.000300     NO 
 Maximum Displacement     0.105719     0.001800     NO 
 RMS     Displacement     0.030215     0.001200     NO 
 Predicted change in Energy= 6.645811D-03
 GradGradGradGradGradGradGradGradGradGradGradGradGradGradGradGradGradGrad

 Leave Link  103 at Sat Apr 16 02:24:03 2016, MaxMem=   33554432 cpu:       0.0
 (Enter c:\G09w04\l202.exe)
                          Input orientation:                          
 ---------------------------------------------------------------------
 Center     Atomic      Atomic             Coordinates (Angstroms)
 Number     Number       Type             X           Y           Z
 ---------------------------------------------------------------------
      1          7           0       -0.069092    1.921516    0.009947
      2          1           0       -0.270043    2.070183    0.996505
      3          6           0       -0.072809    0.495523   -0.322409
      4          1           0       -0.869389   -0.177092   -1.618137
      5          6           0        1.066013   -0.252563    0.402998
      6          6           0       -1.422627   -0.143207   -0.046130
      7          6           0        1.004524   -1.767728    0.160968
      8          8           0       -1.845059   -0.099339    1.218674
      9          1           0        1.090267   -1.996074   -0.906419
     10          1           0        1.829423   -2.266007    0.676681
     11          1           0        0.075544   -2.213416    0.527977
     12          1           0       -0.773066    2.423543   -0.521679
     13          8           0       -2.079767   -0.653968   -0.944413
     14          1           0       -2.723665   -0.507495    1.282262
     15          1           0        0.937800   -0.074721    1.480613
     16          6           0        2.434604    0.301586   -0.015092
     17          1           0        2.506278    1.374065    0.168512
     18          1           0        3.231108   -0.197669    0.543977
     19          1           0        2.611649    0.125400   -1.081634
 ---------------------------------------------------------------------
                    Distance matrix (angstroms):
                    1          2          3          4          5
     1  N    0.000000
     2  H    1.017733   0.000000
     3  C    1.464217   2.063491   0.000000
     4  H    2.774038   3.499402   1.663088   0.000000
     5  C    2.483862   2.744530   1.543619   2.799367   0.000000
     6  C    2.469470   2.704558   1.518656   1.666861   2.531205
     7  C    3.845254   4.129432   2.552764   3.034285   1.535605
     8  O    2.949395   2.690141   2.422740   3.000912   3.027068
     9  H    4.187046   4.691057   2.811026   2.766855   2.180594
    10  H    4.645884   4.828311   3.498959   4.112583   2.170634
    11  H    4.169764   4.322982   2.843152   3.105691   2.200362
    12  H    1.015005   1.637918   2.060905   2.823969   3.376208
    13  O    3.403930   3.803060   2.395016   1.465035   3.445660
    14  H    3.816496   3.570202   3.257001   3.458297   3.898686
    15  H    2.676127   2.508757   2.144154   3.588685   1.099692
    16  C    2.982162   3.386204   2.533608   3.703411   1.534575
    17  H    2.637684   2.979616   2.768488   4.122297   2.185238
    18  H    3.958213   4.195950   3.485255   4.635648   2.170374
    19  H    3.406458   4.050309   2.814201   3.535104   2.176231
                    6          7          8          9         10
     6  C    0.000000
     7  C    2.927972   0.000000
     8  O    1.334205   3.467331   0.000000
     9  H    3.238495   1.094902   4.090203   0.000000
    10  H    3.950261   1.093023   4.300003   1.767887   0.000000
    11  H    2.619137   1.093772   2.938554   1.770422   1.760957
    12  H    2.690034   4.603540   3.246988   4.811761   5.495534
    13  O    1.224591   3.460518   2.245362   3.442645   4.528618
    14  H    1.894738   4.092052   0.970868   4.642443   4.918303
    15  H    2.811983   2.147600   2.795267   3.068023   2.498606
    16  C    3.882915   2.521544   4.471960   2.807302   2.727146
    17  H    4.217165   3.482267   4.712525   3.810302   3.737176
    18  H    4.691315   2.751264   5.121753   3.149779   2.502069
    19  H    4.173704   2.776841   5.020376   2.616478   3.069589
                   11         12         13         14         15
    11  H    0.000000
    12  H    4.829421   0.000000
    13  O    3.040588   3.370052   0.000000
    14  H    3.363731   3.956011   2.322529   0.000000
    15  H    2.494998   3.630091   3.914332   3.692284   0.000000
    16  C    3.490748   3.879236   4.707044   5.380100   2.149224
    17  H    4.348298   3.511675   5.136471   5.668599   2.506135
    18  H    3.744472   4.903038   5.534339   6.008359   2.480255
    19  H    3.806933   4.129323   4.757692   5.869765   3.067073
                   16         17         18         19
    16  C    0.000000
    17  H    1.090439   0.000000
    18  H    1.093725   1.771073   0.000000
    19  H    1.095399   1.770066   1.769383   0.000000
 Symmetry turned off by external request.
 Stoichiometry    C5H11NO2
 Framework group  C1[X(C5H11NO2)]
 Deg. of freedom    51
 Full point group                 C1      NOp   1
 Rotational constants (GHZ):      2.8162753      1.5241934      1.2401599
 Leave Link  202 at Sat Apr 16 02:24:03 2016, MaxMem=   33554432 cpu:       0.0
 (Enter c:\G09w04\l301.exe)
 Standard basis: 6-311++G(d,p) (5D, 7F)
 Ernie: Thresh=  0.10000D-02 Tol=  0.10000D-05 Strict=F.
 Integral buffers will be    262144 words long.
 Raffenetti 2 integral format.
 Two-electron integral symmetry is turned off.
   253 basis functions,   387 primitive gaussians,   261 cartesian basis functions
    32 alpha electrons       32 beta electrons
       nuclear repulsion energy       405.2836608460 Hartrees.
 IExCor=  402 DFT=T Ex+Corr=B3LYP ExCW=0 ScaHFX=  0.200000
 ScaDFX=  0.800000  0.720000  1.000000  0.810000 ScalE2=  1.000000  1.000000
 IRadAn=      0 IRanWt=     -1 IRanGd=            0 ICorTp=0
 NAtoms=   19 NActive=   19 NUniq=   19 SFac= 1.00D+00 NAtFMM=   50 NAOKFM=F Big=F
 ------------------------------------------------------------------------------
 Polarizable Continuum Model (PCM)
 =================================
 Model                : C-PCM.
 Atomic radii         : UFF (Universal Force Field).
 Polarization charges : Total charges.
 Charge compensation  : None.
 Solution method      : Matrix inversion.
 Cavity type          : Scaled VdW (van der Waals Surface) (Alpha=1.100).
 Cavity algorithm     : GePol (No added spheres)
                        Default sphere list used, NSphG=   19.
                        Lebedev-Laikov grids with approx.  5.0 points / Ang**2.
                        Smoothing algorithm: Karplus/York (Gamma=1.0000).
                        Polarization charges: spherical gaussians, with
                                              point-specific exponents (IZeta= 3).
                        Self-potential: point-specific (ISelfS= 7).
                        Self-field    : sphere-specific E.n sum rule (ISelfD= 2).
 1st derivatives      : Analytical E(r).r(x)/FMM algorithm (CHGder, D1EAlg=3).
                        Cavity 1st derivative terms included.
 Solvent              : Water, Eps=  78.355300 Eps(inf)=   1.777849
 ------------------------------------------------------------------------------
 Spheres list:
 ISph  on   Nord    Re0     Alpha      Xe            Ye            Ze
    1   N      1    1.830   1.100     -0.069092      1.921516      0.009947
    2   H      2    1.443   1.100     -0.270043      2.070183      0.996505
    3   C      3    1.926   1.100     -0.072809      0.495523     -0.322409
    4   H      4    1.443   1.100     -0.869389     -0.177092     -1.618137
    5   C      5    1.926   1.100      1.066013     -0.252563      0.402998
    6   C      6    1.926   1.100     -1.422627     -0.143207     -0.046130
    7   C      7    1.926   1.100      1.004524     -1.767728      0.160968
    8   O      8    1.750   1.100     -1.845059     -0.099339      1.218674
    9   H      9    1.443   1.100      1.090267     -1.996074     -0.906419
   10   H     10    1.443   1.100      1.829423     -2.266007      0.676681
   11   H     11    1.443   1.100      0.075544     -2.213416      0.527977
   12   H     12    1.443   1.100     -0.773066      2.423543     -0.521679
   13   O     13    1.750   1.100     -2.079767     -0.653968     -0.944413
   14   H     14    1.443   1.100     -2.723665     -0.507495      1.282262
   15   H     15    1.443   1.100      0.937800     -0.074721      1.480613
   16   C     16    1.926   1.100      2.434604      0.301586     -0.015092
   17   H     17    1.443   1.100      2.506278      1.374065      0.168512
   18   H     18    1.443   1.100      3.231108     -0.197669      0.543977
   19   H     19    1.443   1.100      2.611649      0.125400     -1.081634
 ------------------------------------------------------------------------------
 GePol: Number of generator spheres                  =      19
 GePol: Total number of spheres                      =      19
 GePol: Number of exposed spheres                    =      19 (100.00%)
 GePol: Number of points                             =    1426
 GePol: Average weight of points                     =       0.13
 GePol: Minimum weight of points                     =   0.24D-08
 GePol: Maximum weight of points                     =    0.20577
 GePol: Number of points with low weight             =      79
 GePol: Fraction of low-weight points (<1% of avg)   =       5.54%
 GePol: Cavity surface area                          =    192.364 Ang**2
 GePol: Cavity volume                                =    188.772 Ang**3
 Leave Link  301 at Sat Apr 16 02:24:03 2016, MaxMem=   33554432 cpu:       0.0
 (Enter c:\G09w04\l302.exe)
 NPDir=0 NMtPBC=     1 NCelOv=     1 NCel=       1 NClECP=     1 NCelD=      1
         NCelK=      1 NCelE2=     1 NClLst=     1 CellRange=     0.0.
 One-electron integrals computed using PRISM.
 NBasis=   253 RedAO= T  NBF=   253
 NBsUse=   253 1.00D-06 NBFU=   253
 Precomputing XC quadrature grid using
 IXCGrd= 2 IRadAn=           0 IRanWt=          -1 IRanGd=           0 AccXCQ= 0.00D+00.
 NRdTot=    1232 NPtTot=      157136 NUsed=      162883 NTot=      162899
 NSgBfM=   261   261   261   261   261 NAtAll=    19    19.
 Leave Link  302 at Sat Apr 16 02:24:04 2016, MaxMem=   33554432 cpu:       1.0
 (Enter c:\G09w04\l303.exe)
 DipDrv:  MaxL=1.
 Leave Link  303 at Sat Apr 16 02:24:04 2016, MaxMem=   33554432 cpu:       0.0
 (Enter c:\G09w04\l401.exe)
 Initial guess read from the read-write file.
 B after Tr=     0.000000    0.000000    0.000000
         Rot=    1.000000    0.000000    0.000000    0.000000 Ang=   0.00 deg.
 Guess basis will be translated and rotated to current coordinates.
 Generating alternative initial guess.
 Harris functional with IExCor=  402 diagonalized for initial guess.
 ExpMin= 3.60D-02 ExpMax= 8.59D+03 ExpMxC= 1.30D+03 IAcc=3 IRadAn=         0 AccDes= 0.00D+00
[...]
 ,0.19910303,-0.00125898,-0.00127878,0.01542357,-0.00090374,0.00474484,
 0.00277720,-0.03832488,0.01825812,0.05046290,-0.01382043,-0.00093377,-
 0.00542999,0.00868949,0.00074658,0.00393285,0.00299136,-0.01929060,0.0
 0323629,0.04934420,-0.08746885,-0.06371252,-0.00005147,-0.00514340,0.0
 0883777,0.00127292,0.00297489,0.00197893,-0.00055137,0.01871512,-0.016
 15291,-0.06597915,-0.03727284,0.10295252,-0.00150692,0.00341151,-0.004
 56632,0.00111893,-0.00260955,0.00042995,-0.11302448,0.03559799,-0.0187
 5560,-0.00107158,-0.00106887,-0.00349182,0.43269149,0.03083729,-0.0281
 8493,0.01156251,0.00021594,0.00172404,0.00057645,0.01308738,-0.0915718
 0,-0.00053766,0.00290028,0.00287385,0.00196594,0.01216598,0.47549918,0
 .00705624,-0.01009566,-0.00094911,0.00372257,-0.00219711,0.00164533,-0
 .05274021,0.02247929,-0.04241320,-0.02709944,-0.01289737,-0.00886367,0
 .00035749,0.03376423,0.52139356,0.00431140,0.00100941,-0.00344993,-0.0
 0115920,-0.00012755,0.00429531,-0.19765054,-0.08192201,-0.08430713,0.0
 4422625,0.05372349,0.04603802,-0.04181096,0.00002129,0.02954599,0.6183
 6672,-0.02480611,-0.03605755,-0.00950148,-0.00102462,-0.00140786,0.001
 14135,-0.01289542,-0.11336865,-0.05866954,0.07316711,0.07490154,0.0164
 5853,-0.00379743,0.01865933,0.01614245,0.04073043,0.35701666,-0.009063
 49,-0.00371791,-0.00870913,-0.00350657,-0.00547146,-0.00053401,-0.0070
 0285,-0.01799397,-0.07742154,0.09685132,0.04551496,-0.04743051,-0.0099
 3880,-0.00444122,0.00147592,-0.12845541,0.19029029,0.51818471,-0.00477
 170,0.00413305,-0.00232602,0.00000571,-0.00011619,0.00002323,0.0037600
 3,0.02373272,0.00272079,0.00036901,0.00100924,0.00018874,-0.07813590,-
 0.00596599,-0.00167609,0.00003116,0.00323883,-0.00210822,0.57122364,0.
 00109087,-0.00044963,0.00064470,0.00023800,-0.00010051,0.00029941,0.00
 148580,-0.01519123,0.00055282,0.00035792,0.00027123,0.00038736,-0.0071
 8997,-0.17854832,-0.00794414,0.00158051,0.00121085,0.00070425,-0.00001
 823,0.45701760,-0.00126759,0.00070159,-0.00011013,-0.00025986,0.000493
 34,0.00046076,0.00182926,0.00931164,-0.00135271,-0.00032328,0.00175468
 ,-0.00021818,-0.00133059,-0.00740533,-0.07702825,0.00027045,-0.0003173
 0,0.00038719,-0.00223387,-0.00421237,0.56280743,-0.00128385,-0.0022177
 8,-0.00137178,0.00210871,0.00002985,-0.00247438,-0.03856616,0.01441598
 ,0.04224678,-0.01169647,-0.01308972,0.00695379,0.00618317,-0.00656017,
 0.00041727,-0.24710892,0.03462960,0.13638482,-0.00079446,-0.00052612,0
 .00024497,0.62548495,-0.00146439,0.00235573,0.00183851,0.00015055,0.00
 017164,0.00031775,-0.01210493,0.00812135,0.00364324,-0.00368276,-0.003
 80904,-0.00798318,-0.00019638,-0.00222524,0.00092946,-0.00251063,-0.08
 861664,-0.04012663,-0.00015071,0.00007939,0.00001687,0.12292078,0.1582
 3415,-0.00021382,0.00047870,0.00085128,-0.00084185,0.00035810,0.000936
 87,0.01547935,0.00236306,0.00123051,-0.00625797,-0.00844784,-0.0014334
 6,-0.00465920,0.00316259,0.00329845,0.08758293,-0.05270529,-0.17370243
 ,0.00084166,-0.00033728,-0.00032582,-0.01392835,0.16159433,0.33131525,
 -0.00000289,0.00008432,0.00005817,-0.00008862,0.00002218,-0.00011591,0
 .00055368,0.00004770,0.00023012,-0.00016408,0.00112885,-0.00032583,-0.
 00157366,-0.00057192,-0.00153229,-0.00048441,0.00016676,0.00107167,-0.
 04876015,-0.00880709,-0.02542430,0.00017124,0.00000784,-0.00021512,0.0
 4943431,0.00017369,-0.00006676,0.00048829,-0.00020046,0.00029169,0.000
 22199,-0.00054140,0.00133223,-0.00036104,0.00005347,-0.00127929,0.0003
 5275,-0.00415462,-0.01066726,-0.03278426,0.00051135,-0.00078325,-0.000
 49204,-0.00877446,-0.07195714,-0.07549660,-0.00022202,0.00015704,0.000
 17415,0.00950133,0.07990813,0.00026688,0.00003155,0.00028731,-0.000177
 27,0.00012815,-0.00009497,0.00068678,0.00007528,0.00006288,-0.00029985
 ,-0.00033649,-0.00005007,-0.00033315,-0.00104461,-0.00152374,-0.000997
 94,-0.00108673,-0.00106680,-0.02422555,-0.07641800,-0.27669592,0.00008
 796,-0.00007489,0.00036833,0.02961518,0.08486904,0.30130135,-0.0000431
 2,0.00015290,-0.00024160,-0.00001236,-0.00003344,0.00005574,0.00108997
 ,-0.00075703,0.00030505,0.00012855,-0.00013795,0.00015829,0.00069172,-
 0.00134440,0.00126086,0.00048321,-0.00073480,-0.00083140,-0.23227877,0
 .08613125,-0.08188295,-0.00016994,-0.00005191,0.00023068,-0.00224124,0
 .00033506,-0.00091125,0.25123323,0.00162502,-0.00151285,0.00071407,-0.
 00003131,0.00000625,0.00001314,-0.00235704,-0.00418809,-0.00105707,-0.
 00062246,-0.00051138,-0.00021868,0.02867038,-0.01497441,0.01343929,-0.
 00156061,-0.00126933,-0.00036612,0.08407519,-0.08390617,0.03751063,0.0
 0066454,0.00008230,-0.00019241,-0.00920773,0.00365342,-0.00282383,-0.0
 9307006,0.09474837,0.00002443,0.00013102,0.00047809,-0.00007489,0.0000
 9049,0.00001080,0.00047304,-0.00062052,0.00072511,-0.00002212,-0.00066
 686,0.00030116,0.00216928,-0.00165661,-0.00092313,0.00015200,-0.000547
 91,-0.00052342,-0.08163425,0.03846166,-0.08253978,-0.00040248,0.000038
 27,0.00032805,-0.02575024,0.01223380,-0.01042185,0.09011424,-0.0409444
 2,0.08524389,0.00022761,-0.00018665,0.00006965,-0.00006137,0.00002148,
 -0.00001775,0.00041740,0.00016386,-0.00011308,-0.00043654,-0.00019354,
 -0.00006975,-0.00130307,0.00089258,-0.00051941,-0.00027994,0.00022824,
 -0.00016329,-0.19939582,-0.06815463,0.10864046,0.00019038,0.00004804,-
 0.00010969,0.00300113,0.00204882,-0.00224757,-0.01999463,-0.00903452,0
 .01490040,0.21641776,0.00007751,0.00031418,-0.00032957,-0.00009058,-0.
 00006640,0.00004704,-0.00032771,0.00123777,-0.00051229,0.00019838,0.00
 027388,-0.00017366,-0.02588872,-0.00931888,0.01891024,0.00031970,-0.00
 183304,0.00034129,-0.06709155,-0.07726833,0.04717763,0.00041668,0.0000
 5224,-0.00012165,0.00853020,0.00302026,-0.00482285,0.00912973,0.004067
 65,-0.00781985,0.07482660,0.08470812,-0.00020240,0.00000477,0.00002048
 ,0.00003562,-0.00000280,-0.00005471,0.00000532,0.00016565,0.00036734,0
 .00030279,0.00006323,0.00002611,-0.00284303,-0.00138318,-0.00012051,-0
 .00006041,0.00162571,0.00049671,0.10807395,0.04805032,-0.12342129,-0.0
 0010924,-0.00002796,-0.00006455,0.02349061,0.01041553,-0.01549808,-0.0
 0935516,-0.00522625,0.00697262,-0.11908902,-0.05278773,0.12938197,-0.2
 8476333,0.19114345,-0.11921344,-0.00371778,-0.00135370,0.00462581,-0.0
 0220513,-0.01038249,0.00259644,-0.00025591,0.00003941,-0.00026030,0.00
 062791,0.00076991,0.00053194,0.00378032,-0.00142775,0.00063797,-0.0003
 4531,-0.00028654,-0.00009485,-0.00029895,0.00046948,0.00026872,0.00000
 916,0.00008685,0.00005021,0.00007264,0.00017970,-0.00004880,0.00009120
 ,0.00008531,-0.00002827,0.28672701,0.15482871,-0.13802581,0.04282524,-
 0.00297553,0.00140262,-0.00007623,0.02508098,-0.01954728,0.01014792,-0
 .00063783,-0.00081025,-0.00086278,-0.00132123,-0.00580429,-0.00256077,
 0.00303826,-0.00002405,0.00081680,0.00148574,-0.00001753,0.00030830,-0
 .00079236,0.00068679,0.00088220,0.00002320,-0.00006195,-0.00003673,0.0
 0004799,-0.00047824,-0.00006813,-0.00003428,0.00008887,0.00002487,-0.1
 7923466,0.16139008,-0.09242208,0.03855590,-0.08277851,-0.03229707,0.02
 100868,-0.01100740,0.01332184,-0.00455215,0.00395464,0.00001079,-0.000
 21857,0.00002348,-0.00095382,-0.00253235,-0.00073232,-0.00043353,0.000
 04935,0.00060331,0.00094904,-0.00027800,0.00078834,-0.00030536,-0.0004
 4382,-0.00013963,-0.00003136,0.00010888,-0.00006269,0.00001722,-0.0004
 4332,0.00003022,-0.00006884,-0.00001693,-0.00000069,0.11220563,-0.0508
 8537,0.08908960,-0.00750027,-0.00377480,-0.01979213,0.00045991,-0.0060
 9838,-0.00378765,0.01376237,-0.06853432,-0.06173741,0.02511918,0.06504
 473,0.01433593,0.00192983,-0.00171944,0.01259518,-0.13976604,-0.099932
 71,-0.06736429,-0.00334600,0.00044371,-0.00128061,0.00422207,0.0369501
 1,0.04945464,-0.00050155,0.00049706,-0.00118884,-0.00055470,0.00025534
 ,-0.00041068,0.00002406,-0.00000023,0.00021725,-0.00015899,0.00149209,
 -0.00009279,0.10133703,-0.00447034,0.00128165,-0.01275311,0.00078028,-
 0.00411279,-0.00406073,-0.05915382,-0.04187143,-0.01863247,-0.00985675
 ,-0.01288474,0.01118914,0.00832603,-0.00750090,-0.00758889,-0.01570081
 ,-0.20341077,-0.16927667,0.00095211,-0.00245788,0.00034787,0.00745823,
 0.01512447,-0.02372547,-0.00020206,0.00088798,0.00225536,0.00090815,0.
 00147406,0.00092213,0.00086871,0.00064030,-0.00120034,-0.00065125,0.00
 021196,0.00005538,0.07460975,0.25164730,-0.00622027,-0.00944985,0.0078
 4945,0.00156284,0.00306391,0.00017660,-0.03375611,-0.02443859,0.041981
 81,-0.06583970,-0.05201671,-0.04185466,0.00833311,-0.00127182,-0.01821
 874,0.01316863,-0.12182103,-0.22442066,-0.00012842,-0.00037588,-0.0005
 5375,0.00762397,-0.02778355,-0.04724910,-0.00032165,0.00015458,0.00047
 047,0.00028987,0.00018717,-0.00019045,-0.00069181,0.00078320,-0.000149
 96,-0.00116392,-0.00034248,-0.00040543,0.08450187,0.22676846,0.2842375
 3,0.00130287,0.00034746,-0.00026529,-0.00026073,-0.00001577,-0.0000681
 9,0.00384279,0.00440838,0.00304387,-0.00352961,-0.00298342,0.00008616,
 -0.00092198,0.00035382,0.00117095,-0.04679216,-0.01639097,-0.00597271,
 0.00011393,-0.00006566,-0.00000692,-0.33373662,-0.13932011,-0.12944842
 ,-0.00003129,0.00001956,0.00002745,0.00006901,-0.00002002,0.00002465,-
 0.00002430,0.00008489,-0.00005658,-0.00007296,-0.00026817,0.00009039,0
 .00836682,0.00109545,-0.00638822,0.37147745,-0.00000447,0.00122250,0.0
 0042041,-0.00037480,-0.00009241,0.00042831,0.00183667,0.00156873,-0.00
 868295,0.00420699,0.00438178,-0.00045054,-0.00133724,-0.00033743,0.001
 21915,0.00241022,0.00013530,0.00397873,0.00011772,-0.00002250,0.000025
 39,-0.15926525,-0.09093372,-0.08259683,-0.00001986,0.00005714,-0.00002
 712,-0.00002240,-0.00005874,0.00001583,0.00000789,-0.00006703,0.000036
 52,0.00016753,0.00025150,-0.00008755,-0.00050145,-0.00238044,0.0056070
 1,0.15280381,0.08634417,-0.00024222,-0.00027810,0.00015251,0.00013514,
 0.00010063,-0.00010456,0.00338731,-0.00362270,0.00118240,-0.00040068,0
 .00077694,-0.00016994,0.00067459,0.00081984,-0.00106093,0.03252660,0.0
 1372970,0.01213039,-0.00006256,0.00008938,-0.00002947,-0.17127492,-0.0
 9153112,-0.11621266,0.00001427,-0.00003776,-0.00002266,0.00000776,-0.0
 0001970,-0.00001435,-0.00003867,0.00002392,0.00000426,-0.00007955,-0.0
 0001551,-0.00000644,-0.00294274,0.00033918,-0.00075223,0.13785894,0.07
 976161,0.10483666,0.00183530,-0.00239929,0.00084640,0.00008340,0.00088
 845,0.00115769,-0.01986545,-0.00032379,-0.02622879,-0.00277871,-0.0001
 4788,-0.00026640,-0.04666647,-0.00909775,-0.02982401,0.00920604,0.0070
 9330,-0.00134756,-0.00056698,-0.00114320,-0.00192473,-0.00245579,-0.00
 017729,0.00197727,0.00053462,-0.00034908,0.00014781,0.00033465,0.00011
 873,0.00046356,0.00004320,0.00027230,-0.00040731,0.00009957,-0.0006462
 2,0.00022857,0.00008799,-0.00475476,-0.00413213,0.00035597,0.00028110,
 -0.00003654,0.06136740,-0.00000480,0.00166070,0.00213365,-0.00000045,-
 0.00002016,-0.00121300,0.00959047,0.00063201,0.01185204,0.00173608,0.0
 0040416,0.00061536,-0.00797116,-0.05827417,-0.05094500,-0.00319697,-0.
 00372971,0.00007293,-0.00447582,-0.01339422,-0.03232229,0.00082158,0.0
 0005872,-0.00074622,-0.00059458,-0.00652333,-0.00078326,0.00033940,0.0
 0136209,0.00024271,-0.00030826,0.00128462,0.00048083,-0.00014339,0.000
 24360,0.00003820,-0.00051758,0.00212868,0.00180749,-0.00012576,-0.0001
 7377,0.00004545,0.00591547,0.07110415,0.00153677,-0.00024130,0.0033485
 8,-0.00082245,0.00157934,-0.00031486,-0.01324601,-0.00057073,-0.011622
 37,-0.00056623,0.00133299,0.00046357,-0.02249535,-0.05511686,-0.259658
 04,0.00579289,0.00387130,-0.00025756,-0.00018570,-0.00092042,-0.001683
 64,-0.00244830,-0.00003989,0.00086359,-0.00009965,-0.00012153,0.001371
 56,0.00045812,-0.00030448,0.00049639,-0.00036549,-0.00031309,0.0005411
 7,0.00014317,-0.00022136,0.00054787,-0.00125262,-0.00364326,-0.0016552
 5,0.00011350,0.00034572,-0.00008734,0.02993331,0.05693905,0.28574468,-
 0.00043781,-0.00045315,0.00069873,-0.00055988,0.00012806,0.00012182,-0
 .03138524,-0.00542562,0.00452580,0.00304316,0.00249446,0.00164970,-0.1
 3444176,-0.02688279,0.04401751,-0.00467300,0.00100572,0.00107378,-0.00
 442637,-0.00710740,0.00292682,-0.00143856,-0.00067592,-0.00033512,0.00
 007995,0.00107544,0.00010179,0.00055243,0.00126054,-0.00032259,0.00086
 243,0.00107497,-0.00020293,0.00023443,-0.00031624,-0.00018022,-0.00216
 280,0.00024906,0.00227800,-0.00017537,-0.00024597,0.00034542,0.0002679
 7,-0.00043025,0.00052164,0.48813155,-0.00045741,-0.00073411,0.00069098
 ,-0.00000046,0.00017086,-0.00022781,0.01044168,0.00713384,-0.00430966,
 -0.00243323,-0.00198800,-0.00047043,-0.02333167,-0.08633162,0.01520666
 ,0.00229159,-0.00156598,0.00041721,-0.02950622,-0.01727763,0.01927471,
 0.00131045,0.00046181,-0.00015219,-0.00013550,0.00160719,0.00042924,-0
 .00094465,0.00133098,0.00015117,-0.00146533,-0.00665974,0.00008523,0.0
 0020638,0.00011789,-0.00016323,0.00186922,0.00110936,-0.00122071,0.000
 12856,0.00012852,-0.00022431,0.00590070,0.00245291,-0.00415541,-0.0272
 4639,0.56377973,0.00107942,-0.00017770,0.00072674,-0.00012921,0.000212
 96,-0.00010907,-0.00944294,-0.00537475,0.00248773,0.00129889,0.0016131
 8,0.00128400,0.04449112,0.01704704,-0.10350554,-0.00210195,0.00230508,
 -0.00049013,-0.00018668,0.00221715,-0.00037893,-0.00175492,-0.00056397
 ,0.00025837,-0.00093297,-0.00107626,0.00103346,0.00029917,0.00007904,-
 0.00001229,-0.00052415,-0.00125505,0.00073547,-0.00012609,0.00011690,0
 .00011802,-0.00188508,-0.00115189,0.00109385,-0.00012595,-0.00015297,0
 .00025563,0.02711258,0.01115790,-0.01869426,0.04557294,0.01484688,0.53
 149842,0.00054058,0.00015227,0.00049203,-0.00018469,-0.00000949,0.0001
 5360,0.00024286,-0.00075431,-0.00011870,-0.00038756,-0.00036716,-0.000
 09567,-0.00170508,-0.02683174,-0.00219172,0.00022152,-0.00005221,-0.00
 014959,-0.00447378,-0.00060177,0.00306415,0.00021788,0.00004782,-0.000
 00417,-0.00001485,0.00027595,-0.00005836,0.00029440,-0.00002205,0.0001
 5663,-0.00015362,-0.00179909,0.00019541,0.00029131,0.00021285,-0.00018
 612,0.00044656,0.00034667,-0.00006209,0.00000712,-0.00001245,-0.000011
 56,0.00089001,0.00070818,-0.00030345,-0.04594685,-0.01210532,-0.001137
 56,0.04851673,0.00173310,0.00050246,-0.00044175,-0.00004576,-0.0000397
 5,0.00006906,0.00041415,-0.00092043,-0.00019911,0.00008582,-0.00003311
 ,-0.00001627,-0.00023364,-0.00960594,-0.00102245,-0.00003081,0.0000083
 3,-0.00014119,-0.00241145,0.00052149,0.00209400,-0.00006637,0.00001804
 ,0.00005368,0.00009591,0.00020500,-0.00008090,0.00012740,0.00028998,-0
 .00009343,-0.00009148,-0.00080319,-0.00010613,0.00012282,0.00019778,-0
 .00005696,-0.00001998,0.00007497,0.00007594,-0.00001165,0.00000756,0.0
 0000992,-0.00011483,0.00047309,0.00041934,-0.01567649,-0.31018558,-0.0
 0613622,0.01664716,0.33740661,0.00003721,-0.00001611,-0.00008945,0.000
 12250,-0.00000540,-0.00011124,-0.00019985,-0.00014908,0.00011221,0.000
 20490,0.00008456,-0.00002246,-0.00021478,0.01699920,-0.00010943,-0.000
 26370,-0.00011316,0.00006626,0.00284530,0.00052290,-0.00123792,-0.0000
 0105,-0.00000051,-0.00003714,0.00012644,0.00033429,0.00023254,0.000118
 10,-0.00041038,-0.00002831,0.00042707,0.00102548,0.00040173,-0.0001249
 6,-0.00010162,0.00004119,-0.00006420,-0.00001686,0.00011029,-0.0000094
 2,-0.00000198,0.00000399,-0.00082601,-0.00015917,0.00056573,-0.0011215
 6,-0.00730668,-0.04741924,-0.00137640,0.00625679,0.04746628,0.00014068
 ,0.00026985,-0.00018322,0.,0.00004548,0.00002057,-0.00408719,-0.003640
 14,0.00088693,0.00170652,0.00137415,0.00074514,-0.02000997,0.01022402,
 -0.01228072,-0.00040736,0.00129692,0.00026707,0.00068262,0.00120785,-0
 .00080667,-0.00140446,-0.00026187,0.00020546,-0.00002658,-0.00003388,0
 .00002747,0.00035210,-0.00081180,0.00026101,0.00036503,-0.00005266,0.0
 0027536,-0.00007460,0.00000098,0.00012449,-0.00159045,-0.00105017,0.00
 051211,-0.00002981,0.00000613,0.00013390,0.00098901,0.00044224,0.00021
 542,-0.22107623,0.07917593,-0.08736984,0.00218889,-0.00033650,0.001631
 24,0.24310021,0.00090932,0.00047352,-0.00002896,-0.00006859,0.00002332
 ,0.00004530,-0.00168439,-0.00107143,0.00015093,0.00022698,0.00020791,0
 .00012779,-0.00899360,0.00252548,-0.00479095,-0.00075233,0.00010315,-0
 .00001392,-0.00059380,0.00058216,-0.00046098,-0.00004128,-0.00002972,-
 0.00005836,-0.00003334,-0.00003664,0.00002792,-0.00010572,-0.00007238,
 0.00011867,0.00019193,0.00019745,-0.00007192,0.00007653,0.00008004,-0.
 00003714,-0.00010654,0.00006651,0.00030518,-0.00005011,-0.00002344,0.0
 0004015,0.00053094,0.00028360,-0.00026324,0.08075430,-0.08333614,0.040
 42624,0.02646451,-0.01034622,0.01395942,-0.08762050,0.08681445,-0.0001
 1330,0.00004950,0.00012828,0.00000570,0.00003665,-0.00000668,0.0023976
 7,0.00138985,0.00031060,-0.00052633,-0.00010746,0.00013264,0.01415299,
 -0.00623956,0.00560231,0.00094128,-0.00047875,0.00061114,-0.00017220,-
 0.00059905,0.00036549,0.00011842,0.00015007,-0.00010747,-0.00001280,0.
 00008095,-0.00000623,-0.00009682,0.00001123,0.00010863,-0.00005659,-0.
 00023198,-0.00005760,0.00000313,0.00001311,-0.00000651,0.00035719,-0.0
 0014758,-0.00049129,-0.00001931,0.00011859,-0.00008653,-0.00057318,-0.
 00053347,0.00085329,-0.08927334,0.04045100,-0.09207661,0.00169239,-0.0
 0039939,-0.00022396,0.09583968,-0.04588965,0.09644722,-0.00023162,0.00
 036582,-0.00027173,0.00003958,-0.00014943,-0.00011212,0.00279333,-0.00
 007774,0.00039628,0.00003583,0.00012085,-0.00033693,-0.00107125,0.0075
 0573,0.02718790,-0.00049408,-0.00049489,-0.00038245,0.00110913,0.00136
 468,-0.00013989,0.00037578,0.00000228,-0.00002700,0.00010522,-0.000302
 67,-0.00057173,-0.00000717,-0.00011183,-0.00007319,0.00000909,0.000234
 27,-0.00024197,-0.00004059,0.00001573,0.00002320,-0.00017500,0.0002455
 2,0.00043391,0.00003887,-0.00005419,0.00000551,-0.00376176,-0.00178439
 ,0.00307043,-0.04644808,-0.00369833,-0.01413679,-0.00099143,-0.0001874
 0,-0.00131082,-0.00081840,-0.00910429,-0.02466459,0.04953256,0.0006963
 6,-0.00035777,0.00007591,-0.00006037,-0.00003761,0.00002179,0.00026288
 ,-0.00006091,0.00005699,0.00004467,-0.00002516,-0.00019509,-0.00007780
 ,0.00206331,0.01073583,0.00016547,0.00003167,-0.00009534,0.00035983,0.
 00090838,0.00119821,0.00011337,0.00001068,0.00001674,-0.00003621,0.000
 25555,-0.00028114,0.00003050,-0.00004352,0.00001195,0.00017055,0.00013
 126,-0.00014636,0.00013243,0.00009829,-0.00010099,0.00004344,-0.000028
 29,-0.00003232,0.00000970,-0.00000773,-0.00000754,-0.00184691,0.000027
 02,0.00142382,-0.00358232,-0.07021428,-0.07413356,-0.00229981,-0.00777
 109,-0.03090167,-0.00023604,0.00355839,0.01232593,0.00611026,0.0714618
 0,0.00025846,0.00016100,0.00002749,-0.00017114,0.00017418,0.00000110,-
 0.00053466,-0.00030554,0.00141130,-0.00001762,-0.00020146,0.00019567,-
 0.00102609,-0.00426860,-0.01830895,-0.00024411,-0.00037256,0.00060056,
 -0.00070314,-0.00084480,0.00076656,-0.00000723,0.00004701,-0.00017845,
 0.00015568,0.00093526,0.00031512,0.00000408,0.00005209,-0.00004140,0.0
 0003753,0.00007584,0.00041952,0.00007716,0.00003563,-0.00005707,0.0003
 3697,0.00031974,0.00002152,-0.00005493,0.00004265,-0.00001876,0.003699
 48,0.00131680,-0.00082313,-0.01239819,-0.07332264,-0.27680564,-0.00005
 881,-0.00028494,0.00027893,-0.00050541,-0.00358651,-0.01149672,0.01115
 198,0.08002685,0.30369236||-0.00000472,-0.00000388,-0.00000456,-0.0000
 0670,-0.00000052,-0.00000165,-0.00001424,-0.00001352,-0.00001871,0.000
 02769,0.00001415,0.00000127,-0.00000504,0.00000929,0.00001150,0.000031
 54,-0.00002071,-0.00000520,-0.00000657,0.00000245,0.00000347,-0.000000
 36,0.00000403,-0.00000834,-0.00000121,0.00000360,-0.00000421,0.0000012
 9,0.00000125,0.00000495,0.00000202,0.00000080,0.00000340,-0.00000147,-
 0.00000065,-0.00000696,-0.00001344,-0.00000148,0.00002035,-0.00000118,
 -0.00001009,-0.00000006,0.00000174,0.00000381,-0.00000162,-0.00000490,
 0.00000369,0.00000093,-0.00000275,0.00000362,0.00000212,-0.00000123,0.
 00000129,0.00000209,-0.00000047,0.00000287,0.00000124|||@


 MAN IS THE MEASURE OF ALL THINGS.
  -- PROTAGORAS (5TH CENTURY B.C.)
 Job cpu time:  0 days  0 hours 51 minutes 58.0 seconds.
 File lengths (MBytes):  RWF=    138 Int=      0 D2E=      0 Chk=     12 Scr=      1
 Normal termination of Gaussian 09 at Sat Apr 16 07:14:24 2016.
