 Entering Link 1 = c:\G09w03\l1.exe PID=      4864.
  
 Copyright (c) 1988,1990,1992,1993,1995,1998,2003,2009,2010,
            Gaussian, Inc.  All Rights Reserved.
  
 This is part of the Gaussian(R) 09 program.  It is based on
 the Gaussian(R) 03 system (copyright 2003, Gaussian, Inc.),
 the Gaussian(R) 98 system (copyright 1998, Gaussian, Inc.),
 the Gaussian(R) 94 system (copyright 1995, Gaussian, Inc.),
 the Gaussian 92(TM) system (copyright 1992, Gaussian, Inc.),
 the Gaussian 90(TM) system (copyright 1990, Gaussian, Inc.),
 the Gaussian 88(TM) system (copyright 1988, Gaussian, Inc.),
 the Gaussian 86(TM) system (copyright 1986, Carnegie Mellon
 University), and the Gaussian 82(TM) system (copyright 1983,
 Carnegie Mellon University). Gaussian is a federally registered
 trademark of Gaussian, Inc.
  
 This software contains proprietary and confidential information,
 including trade secrets, belonging to Gaussian, Inc.
  
 This software is provided under written license and may be
 used, copied, transmitted, or stored only in accord with that
 written license.
  
 The following legend is applicable only to US Government
 contracts under FAR:
  
                    RESTRICTED RIGHTS LEGEND
  
 Use, reproduction and disclosure by the US Government is
 subject to restrictions as set forth in subparagraphs (a)
 and (c) of the Commercial Computer Software - Restricted
 Rights clause in FAR 52.227-19.
  
 Gaussian, Inc.
 340 Quinnipiac St., Bldg. 40, Wallingford CT 06492
  
  
 ---------------------------------------------------------------
 Warning -- This program may not be used in any manner that
 competes with the business of Gaussian, Inc. or will provide
 assistance to any competitor of Gaussian, Inc.  The licensee
 of this program is prohibited from giving any competitor of
 Gaussian, Inc. access to this program.  By using this program,
 the user acknowledges that Gaussian, Inc. is engaged in the
 business of creating and licensing software in the field of
 computational chemistry and represents and warrants to the
 licensee that it is not a competitor of Gaussian, Inc. and that
 it will not use this program in any manner prohibited above.
 ---------------------------------------------------------------
  

 Cite this work as:
 Gaussian 09, Revision B.01,
 M. J. Frisch, G. W. Trucks, H. B. Schlegel, G. E. Scuseria, 
 M. A. Robb, J. R. Cheeseman, G. Scalmani, V. Barone, B. Mennucci, 
 G. A. Petersson, H. Nakatsuji, M. Caricato, X. Li, H. P. Hratchian, 
 A. F. Izmaylov, J. Bloino, G. Zheng, J. L. Sonnenberg, M. Hada, 
 M. Ehara, K. Toyota, R. Fukuda, J. Hasegawa, M. Ishida, T. Nakajima, 
 Y. Honda, O. Kitao, H. Nakai, T. Vreven, J. A. Montgomery, Jr., 
 J. E. Peralta, F. Ogliaro, M. Bearpark, J. J. Heyd, E. Brothers, 
 K. N. Kudin, V. N. Staroverov, T. Keith, R. Kobayashi, J. Normand, 
 K. Raghavachari, A. Rendell, J. C. Burant, S. S. Iyengar, J. Tomasi, 
 M. Cossi, N. Rega, J. M. Millam, M. Klene, J. E. Knox, J. B. Cross, 
 V. Bakken, C. Adamo, J. Jaramillo, R. Gomperts, R. E. Stratmann, 
 O. Yazyev, A. J. Austin, R. Cammi, C. Pomelli, J. W. Ochterski, 
 R. L. Martin, K. Morokuma, V. G. Zakrzewski, G. A. Voth, 
 P. Salvador, J. J. Dannenberg, S. Dapprich, A. D. Daniels, 
 O. Farkas, J. B. Foresman, J. V. Ortiz, J. Cioslowski, 
 and D. J. Fox, Gaussian, Inc., Wallingford CT, 2010.
 
 ******************************************
 Gaussian 09:  IA32W-G09RevB.01 12-Aug-2010
                08-Apr-2016 
 ******************************************
 %chk=E:\YangJ\Amiano\val\ts1\s\ts1-p\Val-S-ts1-p-6-31++gdf-cpcm.chk
 ---------------------------------------------------------
 # opt freq rb3lyp/6-311++g(d,p) scrf=(cpcm,solvent=water)
 ---------------------------------------------------------
 1/14=-1,18=20,19=15,26=3,38=1/1,3;
 2/9=110,12=2,17=6,18=5,40=1/2;
 3/5=4,6=6,7=1111,11=2,16=1,25=1,30=1,70=2101,71=1,72=1,74=-5,116=1/1,2,3;
 4//1;
 5/5=2,38=5,53=1/2;
 6/7=2,8=2,9=2,10=2,28=1/1;
 7//1,2,3,16;
 1/14=-1,18=20,19=15/3(2);
 2/9=110/2;
 99//99;
 2/9=110/2;
 3/5=4,6=6,7=1111,11=2,16=1,25=1,30=1,70=2105,71=1,72=1,74=-5,116=1/1,2,3;
 4/5=5,16=3/1;
 5/5=2,38=5,53=1/2;
 7//1,2,3,16;
 1/14=-1,18=20,19=15/3(-5);
 2/9=110/2;
 6/7=2,8=2,9=2,10=2,19=2,28=1/1;
 99/9=1/99;
 ----------------------------
 Val-S-opt-freq-ts1-6-31++gdf
 ----------------------------
 Symbolic Z-matrix:
 Charge =  0 Multiplicity = 1
 N                    -0.01406   1.90578  -0.05153 
 H                    -0.23008   2.06107   0.92939 
 C                    -0.06645   0.47739  -0.37316 
 H                     0.0733    0.36616  -1.45129 
 C                     1.05401  -0.30894   0.35774 
 C                    -1.42015  -0.10933  -0.04726 
 C                     0.94134  -1.821     0.11665 
 O                    -1.99866  -0.03717   1.09172 
 H                     1.01637  -2.0553   -0.95022 
 H                     1.75294  -2.34204   0.62995 
 H                     0.00077  -2.23572   0.48929 
 H                    -0.69292   2.42724  -0.59749 
 O                    -2.18115  -0.73142  -0.86434 
 H                    -2.98232  -0.52846   1.3049 
 H                     0.9251   -0.12069   1.43103 
 C                     2.43432   0.20677  -0.06694 
 H                     2.53621   1.27726   0.11218 
 H                     3.21552  -0.3128    0.49422 
 H                     2.60601   0.01977  -1.1324 
 

 GradGradGradGradGradGradGradGradGradGradGradGradGradGradGradGradGradGrad
 Berny optimization.
 Initialization pass.
                           ----------------------------
                           !    Initial Parameters    !
                           ! (Angstroms and Degrees)  !
 --------------------------                            --------------------------
 ! Name  Definition              Value          Derivative Info.                !
 --------------------------------------------------------------------------------
 ! R1    R(1,2)                  1.0164         estimate D2E/DX2                !
 ! R2    R(1,3)                  1.4651         estimate D2E/DX2                !
 ! R3    R(1,12)                 1.0153         estimate D2E/DX2                !
 ! R4    R(3,4)                  1.0928         estimate D2E/DX2                !
 ! R5    R(3,5)                  1.5518         estimate D2E/DX2                !
 ! R6    R(3,6)                  1.511          estimate D2E/DX2                !
 ! R7    R(5,7)                  1.5353         estimate D2E/DX2                !
 ! R8    R(5,15)                 1.0973         estimate D2E/DX2                !
 ! R9    R(5,16)                 1.5335         estimate D2E/DX2                !
 ! R10   R(6,8)                  1.2795         estimate D2E/DX2                !
 ! R11   R(6,13)                 1.2782         estimate D2E/DX2                !
 ! R12   R(7,9)                  1.0949         estimate D2E/DX2                !
 ! R13   R(7,10)                 1.0925         estimate D2E/DX2                !
 ! R14   R(7,11)                 1.0934         estimate D2E/DX2                !
 ! R15   R(8,14)                 1.12           estimate D2E/DX2                !
 ! R16   R(16,17)                1.0901         estimate D2E/DX2                !
 ! R17   R(16,18)                1.0932         estimate D2E/DX2                !
 ! R18   R(16,19)                1.0953         estimate D2E/DX2                !
 ! A1    A(2,1,3)              110.6863         estimate D2E/DX2                !
 ! A2    A(2,1,12)             107.361          estimate D2E/DX2                !
 ! A3    A(3,1,12)             111.0253         estimate D2E/DX2                !
 ! A4    A(1,3,4)              108.1344         estimate D2E/DX2                !
 ! A5    A(1,3,5)              111.3965         estimate D2E/DX2                !
 ! A6    A(1,3,6)              111.301          estimate D2E/DX2                !
 ! A7    A(4,3,5)              108.7095         estimate D2E/DX2                !
 ! A8    A(4,3,6)              106.7284         estimate D2E/DX2                !
 ! A9    A(5,3,6)              110.3982         estimate D2E/DX2                !
 ! A10   A(3,5,7)              111.846          estimate D2E/DX2                !
 ! A11   A(3,5,15)             106.7958         estimate D2E/DX2                !
 ! A12   A(3,5,16)             110.4307         estimate D2E/DX2                !
 ! A13   A(7,5,15)             108.2972         estimate D2E/DX2                !
 ! A14   A(7,5,16)             110.7183         estimate D2E/DX2                !
 ! A15   A(15,5,16)            108.5984         estimate D2E/DX2                !
 ! A16   A(3,6,8)              125.1122         estimate D2E/DX2                !
 ! A17   A(3,6,13)             125.7697         estimate D2E/DX2                !
 ! A18   A(8,6,13)             109.105          estimate D2E/DX2                !
 ! A19   A(5,7,9)              111.0231         estimate D2E/DX2                !
 ! A20   A(5,7,10)             109.9617         estimate D2E/DX2                !
 ! A21   A(5,7,11)             112.529          estimate D2E/DX2                !
 ! A22   A(9,7,10)             107.7493         estimate D2E/DX2                !
 ! A23   A(9,7,11)             108.052          estimate D2E/DX2                !
 ! A24   A(10,7,11)            107.3385         estimate D2E/DX2                !
 ! A25   A(6,8,14)             122.8053         estimate D2E/DX2                !
 ! A26   A(5,16,17)            111.6458         estimate D2E/DX2                !
 ! A27   A(5,16,18)            109.9516         estimate D2E/DX2                !
 ! A28   A(5,16,19)            110.6756         estimate D2E/DX2                !
 ! A29   A(17,16,18)           108.3954         estimate D2E/DX2                !
 ! A30   A(17,16,19)           108.23           estimate D2E/DX2                !
 ! A31   A(18,16,19)           107.8283         estimate D2E/DX2                !
 ! D1    D(2,1,3,4)            174.48           estimate D2E/DX2                !
 ! D2    D(2,1,3,5)            -66.1236         estimate D2E/DX2                !
 ! D3    D(2,1,3,6)             57.5572         estimate D2E/DX2                !
 ! D4    D(12,1,3,4)            55.3467         estimate D2E/DX2                !
 ! D5    D(12,1,3,5)           174.7432         estimate D2E/DX2                !
 ! D6    D(12,1,3,6)           -61.576          estimate D2E/DX2                !
 ! D7    D(1,3,5,7)            175.487          estimate D2E/DX2                !
 ! D8    D(1,3,5,15)            57.1723         estimate D2E/DX2                !
 ! D9    D(1,3,5,16)           -60.7286         estimate D2E/DX2                !
 ! D10   D(4,3,5,7)            -65.4589         estimate D2E/DX2                !
 ! D11   D(4,3,5,15)           176.2264         estimate D2E/DX2                !
 ! D12   D(4,3,5,16)            58.3255         estimate D2E/DX2                !
 ! D13   D(6,3,5,7)             51.2952         estimate D2E/DX2                !
 ! D14   D(6,3,5,15)           -67.0195         estimate D2E/DX2                !
 ! D15   D(6,3,5,16)           175.0796         estimate D2E/DX2                !
 ! D16   D(1,3,6,8)            -54.444          estimate D2E/DX2                !
 ! D17   D(1,3,6,13)           124.0984         estimate D2E/DX2                !
 ! D18   D(4,3,6,8)           -172.2203         estimate D2E/DX2                !
 ! D19   D(4,3,6,13)             6.3221         estimate D2E/DX2                !
 ! D20   D(5,3,6,8)             69.8026         estimate D2E/DX2                !
 ! D21   D(5,3,6,13)          -111.655          estimate D2E/DX2                !
 ! D22   D(3,5,7,9)             59.897          estimate D2E/DX2                !
 ! D23   D(3,5,7,10)           179.0445         estimate D2E/DX2                !
 ! D24   D(3,5,7,11)           -61.3566         estimate D2E/DX2                !
 ! D25   D(15,5,7,9)           177.3138         estimate D2E/DX2                !
 ! D26   D(15,5,7,10)          -63.5387         estimate D2E/DX2                !
 ! D27   D(15,5,7,11)           56.0602         estimate D2E/DX2                !
 ! D28   D(16,5,7,9)           -63.7255         estimate D2E/DX2                !
 ! D29   D(16,5,7,10)           55.422          estimate D2E/DX2                !
 ! D30   D(16,5,7,11)          175.0209         estimate D2E/DX2                !
 ! D31   D(3,5,16,17)           56.4417         estimate D2E/DX2                !
 ! D32   D(3,5,16,18)          176.7901         estimate D2E/DX2                !
 ! D33   D(3,5,16,19)          -64.1888         estimate D2E/DX2                !
 ! D34   D(7,5,16,17)         -179.1253         estimate D2E/DX2                !
 ! D35   D(7,5,16,18)          -58.7769         estimate D2E/DX2                !
 ! D36   D(7,5,16,19)           60.2442         estimate D2E/DX2                !
 ! D37   D(15,5,16,17)         -60.3469         estimate D2E/DX2                !
 ! D38   D(15,5,16,18)          60.0015         estimate D2E/DX2                !
 ! D39   D(15,5,16,19)         179.0226         estimate D2E/DX2                !
 ! D40   D(3,6,8,14)          -177.0133         estimate D2E/DX2                !
 ! D41   D(13,6,8,14)            4.2383         estimate D2E/DX2                !
 --------------------------------------------------------------------------------
 Trust Radius=3.00D-01 FncErr=1.00D-07 GrdErr=1.00D-06
 Number of steps in this run=    100 maximum allowed number of steps=    114.
 GradGradGradGradGradGradGradGradGradGradGradGradGradGradGradGradGradGrad

                          Input orientation:                          
 ---------------------------------------------------------------------
 Center     Atomic      Atomic             Coordinates (Angstroms)
 Number     Number       Type             X           Y           Z
 ---------------------------------------------------------------------
      1          7           0       -0.014060    1.905776   -0.051526
      2          1           0       -0.230078    2.061073    0.929387
      3          6           0       -0.066445    0.477395   -0.373163
      4          1           0        0.073303    0.366160   -1.451292
      5          6           0        1.054007   -0.308936    0.357742
      6          6           0       -1.420153   -0.109328   -0.047263
      7          6           0        0.941341   -1.821004    0.116646
      8          8           0       -1.998660   -0.037168    1.091717
      9          1           0        1.016366   -2.055296   -0.950216
     10          1           0        1.752936   -2.342039    0.629947
     11          1           0        0.000768   -2.235715    0.489291
     12          1           0       -0.692919    2.427244   -0.597489
     13          8           0       -2.181153   -0.731415   -0.864341
     14          1           0       -2.982321   -0.528459    1.304895
     15          1           0        0.925102   -0.120688    1.431026
     16          6           0        2.434317    0.206772   -0.066936
     17          1           0        2.536212    1.277261    0.112178
     18          1           0        3.215520   -0.312804    0.494217
     19          1           0        2.606010    0.019770   -1.132402
 ---------------------------------------------------------------------
                    Distance matrix (angstroms):
                    1          2          3          4          5
     1  N    0.000000
     2  H    1.016352   0.000000
     3  C    1.465083   2.057048   0.000000
     4  H    2.082641   2.938095   1.092824   0.000000
     5  C    2.492632   2.755466   1.551757   2.165673   0.000000
     6  C    2.457185   2.660971   1.510953   2.104233   2.515023
     7  C    3.850969   4.135613   2.556987   2.827650   1.535308
     8  O    3.003444   2.748972   2.478730   3.304936   3.151405
     9  H    4.190407   4.693722   2.814248   2.646487   2.182188
    10  H    4.650872   4.838327   3.502226   3.806188   2.167050
    11  H    4.176679   4.325432   2.847685   3.246672   2.199794
    12  H    1.015310   1.636965   2.060268   2.358844   3.383918
    13  O    3.508808   3.849954   2.484848   2.575219   3.483997
    14  H    4.071357   3.797568   3.511403   4.211145   4.151774
    15  H    2.680773   2.519159   2.143821   3.044723   1.097266
    16  C    2.980168   3.395599   2.533934   2.741575   1.533480
    17  H    2.631676   2.989072   2.765712   3.056217   2.184778
    18  H    3.956023   4.206758   3.485406   3.757596   2.165821
    19  H    3.404420   4.057251   2.815649   2.576098   2.176532
                    6          7          8          9         10
     6  C    0.000000
     7  C    2.921191   0.000000
     8  O    1.279513   3.574415   0.000000
     9  H    3.246343   1.094859   4.163257   0.000000
    10  H    3.938541   1.092539   4.427204   1.766825   0.000000
    11  H    2.613126   1.093402   3.032200   1.770924   1.761017
    12  H    2.695518   4.607429   3.260629   4.810326   5.498624
    13  O    1.278174   3.449566   2.083614   3.461815   4.506003
    14  H    2.108167   4.298573   1.120000   4.838001   5.115396
    15  H    2.772307   2.149170   2.944570   3.069422   2.502286
    16  C    3.867460   2.524788   4.588384   2.812067   2.728803
    17  H    4.195340   3.484663   4.822062   3.813732   3.739109
    18  H    4.671624   2.754835   5.255536   3.155779   2.505069
    19  H    4.171832   2.778433   5.113994   2.620317   3.067858
                   11         12         13         14         15
    11  H    0.000000
    12  H    4.837921   0.000000
    13  O    2.975906   3.501882   0.000000
    14  H    3.532527   4.194831   2.321346   0.000000
    15  H    2.492909   3.636595   3.910309   3.930666   0.000000
    16  C    3.492462   3.871897   4.776883   5.635818   2.151476
    17  H    4.348757   3.500482   5.219377   5.927681   2.507847
    18  H    3.745963   4.896487   5.580770   6.254353   2.482042
    19  H    3.808463   4.118859   4.853150   6.121308   3.068606
                   16         17         18         19
    16  C    0.000000
    17  H    1.090143   0.000000
    18  H    1.093220   1.770796   0.000000
    19  H    1.095293   1.770631   1.768615   0.000000
 Stoichiometry    C5H11NO2
 Framework group  C1[X(C5H11NO2)]
 Deg. of freedom    51
 Full point group                 C1      NOp   1
 Largest Abelian subgroup         C1      NOp   1
 Largest concise Abelian subgroup C1      NOp   1
                         Standard orientation:                         
 ---------------------------------------------------------------------
 Center     Atomic      Atomic             Coordinates (Angstroms)
 Number     Number       Type             X           Y           Z
 ---------------------------------------------------------------------
      1          7           0        0.100791    1.962825   -0.073337
      2          1           0       -0.136583    2.108760    0.904071
      3          6           0        0.060176    0.537174   -0.408503
      4          1           0        0.223214    0.435909   -1.484342
      5          6           0        1.167521   -0.251924    0.339202
      6          6           0       -1.298134   -0.056802   -0.116667
      7          6           0        1.065213   -1.762165    0.082539
      8          8           0       -1.900990    0.003426    1.010316
      9          1           0        1.163727   -1.986792   -0.984491
     10          1           0        1.867490   -2.285065    0.608438
     11          1           0        0.118356   -2.183205    0.431416
     12          1           0       -0.568088    2.486877   -0.629058
     13          8           0       -2.039431   -0.674130   -0.955186
     14          1           0       -2.887267   -0.492924    1.198180
     15          1           0        1.015161   -0.073571    1.411102
     16          6           0        2.554772    0.271998   -0.051441
     17          1           0        2.649149    1.341191    0.139163
     18          1           0        3.325641   -0.249964    0.521663
     19          1           0        2.749739    0.094961   -1.114602
 ---------------------------------------------------------------------
 Rotational constants (GHZ):      2.8846166      1.4971849      1.1930291
 Standard basis: 6-311++G(d,p) (5D, 7F)
 There are   253 symmetry adapted basis functions of A   symmetry.
 Integral buffers will be    262144 words long.
 Raffenetti 2 integral format.
 Two-electron integral symmetry is turned on.
   253 basis functions,   387 primitive gaussians,   261 cartesian basis functions
    32 alpha electrons       32 beta electrons
       nuclear repulsion energy       403.8219771443 Hartrees.
 NAtoms=   19 NActive=   19 NUniq=   19 SFac= 1.00D+00 NAtFMM=   50 NAOKFM=F Big=F
 ------------------------------------------------------------------------------
 Polarizable Continuum Model (PCM)
 =================================
 Model                : C-PCM.
 Atomic radii         : UFF (Universal Force Field).
 Polarization charges : Total charges.
 Charge compensation  : None.
 Solution method      : Matrix inversion.
 Cavity type          : Scaled VdW (van der Waals Surface) (Alpha=1.100).
 Cavity algorithm     : GePol (No added spheres)
                        Default sphere list used, NSphG=   19.
                        Lebedev-Laikov grids with approx.  5.0 points / Ang**2.
                        Smoothing algorithm: Karplus/York (Gamma=1.0000).
                        Polarization charges: spherical gaussians, with
                                              point-specific exponents (IZeta= 3).
                        Self-potential: point-specific (ISelfS= 7).
                        Self-field    : sphere-specific E.n sum rule (ISelfD= 2).
 1st derivatives      : Analytical E(r).r(x)/FMM algorithm (CHGder, D1EAlg=3).
                        Cavity 1st derivative terms included.
 Solvent              : Water, Eps=  78.355300 Eps(inf)=   1.777849
 ------------------------------------------------------------------------------
 Spheres list:
 ISph  on   Nord    Re0     Alpha      Xe            Ye            Ze
    1   N      1    1.830   1.100      0.100791      1.962825     -0.073337
    2   H      2    1.443   1.100     -0.136583      2.108760      0.904071
    3   C      3    1.926   1.100      0.060176      0.537174     -0.408503
    4   H      4    1.443   1.100      0.223214      0.435909     -1.484342
    5   C      5    1.926   1.100      1.167521     -0.251924      0.339202
    6   C      6    1.926   1.100     -1.298134     -0.056802     -0.116667
    7   C      7    1.926   1.100      1.065213     -1.762165      0.082539
    8   O      8    1.750   1.100     -1.900990      0.003426      1.010316
    9   H      9    1.443   1.100      1.163727     -1.986792     -0.984491
   10   H     10    1.443   1.100      1.867490     -2.285065      0.608438
   11   H     11    1.443   1.100      0.118356     -2.183205      0.431416
   12   H     12    1.443   1.100     -0.568088      2.486877     -0.629058
   13   O     13    1.750   1.100     -2.039431     -0.674130     -0.955186
   14   H     14    1.443   1.100     -2.887267     -0.492924      1.198180
   15   H     15    1.443   1.100      1.015161     -0.073571      1.411102
   16   C     16    1.926   1.100      2.554772      0.271998     -0.051441
   17   H     17    1.443   1.100      2.649149      1.341191      0.139163
   18   H     18    1.443   1.100      3.325641     -0.249964      0.521663
   19   H     19    1.443   1.100      2.749739      0.094961     -1.114602
 ------------------------------------------------------------------------------
 One-electron integrals computed using PRISM.
 NBasis=   253 RedAO= T  NBF=   253
 NBsUse=   253 1.00D-06 NBFU=   253
 Harris functional with IExCor=  402 diagonalized for initial guess.
 ExpMin= 3.60D-02 ExpMax= 8.59D+03 ExpMxC= 1.30D+03 IAcc=3 IRadAn=         0 AccDes= 0.00D+00
 HarFok:  IExCor=  402 AccDes= 0.00D+00 IRadAn=         0 IDoV= 1
 ScaDFX=  1.000000  1.000000  1.000000  1.000000
 FoFCou: FMM=F IPFlag=           0 FMFlag=      100000 FMFlg1=           0
         NFxFlg=           0 DoJE=T BraDBF=F KetDBF=T FulRan=T
         Omega=  0.000000  0.000000  1.000000  0.000000  0.000000 ICntrl=     500 IOpCl=  0
         NMat0=    1 NMatS0=    1 NMatT0=    0 NMatD0=    1 NMtDS0=    0 NMtDT0=    0
         I1Cent=           4 NGrid=           0.
 Petite list used in FoFCou.
 Initial guess orbital symmetries:
       Occupied  (A) (A) (A) (A) (A) (A) (A) (A) (A) (A) (A) (A)
                 (A) (A) (A) (A) (A) (A) (A) (A) (A) (A) (A) (A)
                 (A) (A) (A) (A) (A) (A) (A) (A)
       Virtual   (A) (A) (A) (A) (A) (A) (A) (A) (A) (A) (A) (A)
                 (A) (A) (A) (A) (A) (A) (A) (A) (A) (A) (A) (A)
                 (A) (A) (A) (A) (A) (A) (A) (A) (A) (A) (A) (A)
                 (A) (A) (A) (A) (A) (A) (A) (A) (A) (A) (A) (A)
                 (A) (A) (A) (A) (A) (A) (A) (A) (A) (A) (A) (A)
                 (A) (A) (A) (A) (A) (A) (A) (A) (A) (A) (A) (A)
                 (A) (A) (A) (A) (A) (A) (A) (A) (A) (A) (A) (A)
                 (A) (A) (A) (A) (A) (A) (A) (A) (A) (A) (A) (A)
                 (A) (A) (A) (A) (A) (A) (A) (A) (A) (A) (A) (A)
                 (A) (A) (A) (A) (A) (A) (A) (A) (A) (A) (A) (A)
                 (A) (A) (A) (A) (A) (A) (A) (A) (A) (A) (A) (A)
                 (A) (A) (A) (A) (A) (A) (A) (A) (A) (A) (A) (A)
                 (A) (A) (A) (A) (A) (A) (A) (A) (A) (A) (A) (A)
                 (A) (A) (A) (A) (A) (A) (A) (A) (A) (A) (A) (A)
                 (A) (A) (A) (A) (A) (A) (A) (A) (A) (A) (A) (A)
                 (A) (A) (A) (A) (A) (A) (A) (A) (A) (A) (A) (A)
                 (A) (A) (A) (A) (A) (A) (A) (A) (A) (A) (A) (A)
                 (A) (A) (A) (A) (A) (A) (A) (A) (A) (A) (A) (A)
                 (A) (A) (A) (A) (A)
 The electronic state of the initial guess is 1-A.
 Requested convergence on RMS density matrix=1.00D-08 within 128 cycles.
 Requested convergence on MAX density matrix=1.00D-06.
 Requested convergence on             energy=1.00D-06.
 No special actions if energy rises.
 Error on total polarization charges =  0.01394
 SCF Done:  E(RB3LYP) =  -402.468213443     A.U. after   14 cycles
             Convg  =    0.1290D-08             -V/T =  2.0046

 **********************************************************************

            Population analysis using the SCF density.

 **********************************************************************

 Orbital symmetries:
       Occupied  (A) (A) (A) (A) (A) (A) (A) (A) (A) (A) (A) (A)
                 (A) (A) (A) (A) (A) (A) (A) (A) (A) (A) (A) (A)
                 (A) (A) (A) (A) (A) (A) (A) (A)
       Virtual   (A) (A) (A) (A) (A) (A) (A) (A) (A) (A) (A) (A)
                 (A) (A) (A) (A) (A) (A) (A) (A) (A) (A) (A) (A)
                 (A) (A) (A) (A) (A) (A) (A) (A) (A) (A) (A) (A)
                 (A) (A) (A) (A) (A) (A) (A) (A) (A) (A) (A) (A)
                 (A) (A) (A) (A) (A) (A) (A) (A) (A) (A) (A) (A)
                 (A) (A) (A) (A) (A) (A) (A) (A) (A) (A) (A) (A)
                 (A) (A) (A) (A) (A) (A) (A) (A) (A) (A) (A) (A)
                 (A) (A) (A) (A) (A) (A) (A) (A) (A) (A) (A) (A)
                 (A) (A) (A) (A) (A) (A) (A) (A) (A) (A) (A) (A)
                 (A) (A) (A) (A) (A) (A) (A) (A) (A) (A) (A) (A)
                 (A) (A) (A) (A) (A) (A) (A) (A) (A) (A) (A) (A)
                 (A) (A) (A) (A) (A) (A) (A) (A) (A) (A) (A) (A)
                 (A) (A) (A) (A) (A) (A) (A) (A) (A) (A) (A) (A)
                 (A) (A) (A) (A) (A) (A) (A) (A) (A) (A) (A) (A)
                 (A) (A) (A) (A) (A) (A) (A) (A) (A) (A) (A) (A)
                 (A) (A) (A) (A) (A) (A) (A) (A) (A) (A) (A) (A)
                 (A) (A) (A) (A) (A) (A) (A) (A) (A) (A) (A) (A)
                 (A) (A) (A) (A) (A) (A) (A) (A) (A) (A) (A) (A)
                 (A) (A) (A) (A) (A)
 The electronic state is 1-A.
 Alpha  occ. eigenvalues --  -19.18448 -19.10254 -14.31278 -10.31547 -10.23226
 Alpha  occ. eigenvalues --  -10.18959 -10.16346 -10.15907  -1.12401  -0.98018
 Alpha  occ. eigenvalues --   -0.91236  -0.80502  -0.71626  -0.68841  -0.63448
 Alpha  occ. eigenvalues --   -0.58810  -0.52035  -0.50395  -0.48576  -0.47574
 Alpha  occ. eigenvalues --   -0.46301  -0.42891  -0.40949  -0.40269  -0.39025
 Alpha  occ. eigenvalues --   -0.38156  -0.34872  -0.34647  -0.33935  -0.31122
 Alpha  occ. eigenvalues --   -0.28578  -0.25582
 Alpha virt. eigenvalues --   -0.02807  -0.02049   0.00091   0.00742   0.01333
 Alpha virt. eigenvalues --    0.02361   0.03977   0.04107   0.04594   0.05185
 Alpha virt. eigenvalues --    0.06228   0.07353   0.07614   0.08001   0.08788
 Alpha virt. eigenvalues --    0.09385   0.09584   0.10485   0.10704   0.12253
 Alpha virt. eigenvalues --    0.12584   0.12896   0.13421   0.13969   0.14452
 Alpha virt. eigenvalues --    0.14878   0.15331   0.16100   0.16682   0.16822
 Alpha virt. eigenvalues --    0.17411   0.17979   0.18164   0.19360   0.19501
 Alpha virt. eigenvalues --    0.20251   0.20494   0.21817   0.22567   0.23037
 Alpha virt. eigenvalues --    0.23202   0.24583   0.24887   0.25680   0.26239
 Alpha virt. eigenvalues --    0.27559   0.28081   0.29077   0.29752   0.30302
 Alpha virt. eigenvalues --    0.31729   0.31953   0.32762   0.33958   0.34383
 Alpha virt. eigenvalues --    0.34522   0.37933   0.39076   0.40093   0.40552
 Alpha virt. eigenvalues --    0.41842   0.43426   0.44759   0.46389   0.48332
 Alpha virt. eigenvalues --    0.50853   0.52657   0.53698   0.54707   0.57959
 Alpha virt. eigenvalues --    0.58697   0.59688   0.62823   0.63860   0.65309
 Alpha virt. eigenvalues --    0.65655   0.66343   0.67963   0.69169   0.70273
 Alpha virt. eigenvalues --    0.70897   0.71662   0.74059   0.74772   0.75512
 Alpha virt. eigenvalues --    0.77034   0.78143   0.78682   0.83115   0.85211
 Alpha virt. eigenvalues --    0.88251   0.89492   0.94632   0.99898   1.00775
 Alpha virt. eigenvalues --    1.04730   1.05858   1.08707   1.09681   1.13258
 Alpha virt. eigenvalues --    1.15632   1.17795   1.18618   1.20564   1.22126
 Alpha virt. eigenvalues --    1.24609   1.25342   1.28514   1.33742   1.40801
 Alpha virt. eigenvalues --    1.42310   1.44390   1.45680   1.47055   1.49306
 Alpha virt. eigenvalues --    1.50264   1.52295   1.54209   1.55960   1.56667
 Alpha virt. eigenvalues --    1.58439   1.58942   1.60904   1.61163   1.64415
 Alpha virt. eigenvalues --    1.65093   1.66607   1.67338   1.70129   1.72120
 Alpha virt. eigenvalues --    1.74294   1.76017   1.77993   1.79890   1.80832
 Alpha virt. eigenvalues --    1.83740   1.85322   1.88653   1.91417   1.93991
 Alpha virt. eigenvalues --    1.96237   1.99068   2.02224   2.05556   2.07055
 Alpha virt. eigenvalues --    2.11655   2.13822   2.15417   2.20000   2.24730
 Alpha virt. eigenvalues --    2.30378   2.32540   2.36218   2.39993   2.44771
 Alpha virt. eigenvalues --    2.48299   2.49395   2.51266   2.52306   2.53140
 Alpha virt. eigenvalues --    2.56441   2.58815   2.59126   2.61605   2.62001
 Alpha virt. eigenvalues --    2.65447   2.67671   2.70490   2.72368   2.72673
 Alpha virt. eigenvalues --    2.75364   2.76730   2.79634   2.83865   2.85787
 Alpha virt. eigenvalues --    2.86949   2.90262   2.91108   2.95816   2.96350
 Alpha virt. eigenvalues --    2.99670   3.02072   3.02858   3.04589   3.11610
 Alpha virt. eigenvalues --    3.16312   3.18368   3.22569   3.24034   3.32907
 Alpha virt. eigenvalues --    3.43369   3.46710   3.58175   3.66785   3.78543
 Alpha virt. eigenvalues --    3.80128   3.81111   3.83269   3.84483   3.99459
 Alpha virt. eigenvalues --    4.08613   4.13221   4.14029   4.28540   4.31125
 Alpha virt. eigenvalues --    4.72416   4.84097   4.99403   5.09434   5.13605
 Alpha virt. eigenvalues --    5.30511   5.54065   5.82810  23.75912  23.80832
 Alpha virt. eigenvalues --   23.83789  23.97755  23.98056  35.60265  49.86116
 Alpha virt. eigenvalues --   50.00318
          Condensed to atoms (all electrons):
              1          2          3          4          5          6
     1  N    6.721860   0.382023  -0.090296  -0.042779  -0.004540  -0.015639
     2  H    0.382023   0.427328  -0.011408   0.010914  -0.018537  -0.035238
     3  C   -0.090296  -0.011408   9.262524   0.484074  -1.631747  -1.606254
     4  H   -0.042779   0.010914   0.484074   0.492564   0.007093  -0.171961
     5  C   -0.004540  -0.018537  -1.631747   0.007093   7.212223   0.210437
     6  C   -0.015639  -0.035238  -1.606254  -0.171961   0.210437   6.920003
     7  C    0.054900   0.002323  -0.011491  -0.069967  -0.296309   0.169394
     8  O   -0.022632   0.002021  -0.049914   0.007107  -0.069388   0.362074
     9  H   -0.003102  -0.000127  -0.088890   0.005849   0.119787   0.012833
    10  H    0.000113  -0.000210   0.069154  -0.000829  -0.117608  -0.017275
    11  H   -0.008888   0.001578   0.012556  -0.002063  -0.065258  -0.021311
    12  H    0.393277  -0.040944  -0.085544  -0.014855   0.026375   0.035857
    13  O    0.000770  -0.000270   0.035036   0.003076  -0.029178   0.421440
    14  H    0.001534   0.001791  -0.085897  -0.003200   0.014083   0.046927
    15  H   -0.011824   0.002664  -0.091023   0.019430   0.584711  -0.016022
    16  C   -0.047474   0.006498   0.379463   0.003394  -0.205806  -0.174936
    17  H    0.010597  -0.000808  -0.024179  -0.000502  -0.052714  -0.000904
    18  H    0.001891   0.000175   0.030131  -0.002644  -0.096760  -0.005366
    19  H   -0.005391  -0.000110  -0.018837   0.008601   0.031499   0.003177
              7          8          9         10         11         12
     1  N    0.054900  -0.022632  -0.003102   0.000113  -0.008888   0.393277
     2  H    0.002323   0.002021  -0.000127  -0.000210   0.001578  -0.040944
     3  C   -0.011491  -0.049914  -0.088890   0.069154   0.012556  -0.085544
     4  H   -0.069967   0.007107   0.005849  -0.000829  -0.002063  -0.014855
     5  C   -0.296309  -0.069388   0.119787  -0.117608  -0.065258   0.026375
     6  C    0.169394   0.362074   0.012833  -0.017275  -0.021311   0.035857
     7  C    5.904948  -0.032131   0.336948   0.420903   0.433027  -0.001186
     8  O   -0.032131   7.968620   0.003552  -0.004930  -0.003834  -0.002099
     9  H    0.336948   0.003552   0.548898  -0.036843  -0.040734  -0.000172
    10  H    0.420903  -0.004930  -0.036843   0.547792  -0.025715   0.000160
    11  H    0.433027  -0.003834  -0.040734  -0.025715   0.560346  -0.000899
    12  H   -0.001186  -0.002099  -0.000172   0.000160  -0.000899   0.422403
    13  O   -0.016624  -0.232699  -0.003613   0.000753  -0.010791  -0.001039
    14  H    0.006547   0.257951   0.000597  -0.000088  -0.001180   0.000512
    15  H   -0.124826   0.005374   0.013486  -0.012283  -0.015020  -0.000629
    16  C   -0.121582   0.001837  -0.032314   0.012542   0.012927  -0.005425
    17  H    0.017268   0.000061  -0.003141   0.001541  -0.001525   0.001628
    18  H    0.002757   0.000011   0.002752  -0.001191   0.002582   0.000040
    19  H   -0.020583   0.000628   0.009062   0.002664  -0.003070  -0.001041
             13         14         15         16         17         18
     1  N    0.000770   0.001534  -0.011824  -0.047474   0.010597   0.001891
     2  H   -0.000270   0.001791   0.002664   0.006498  -0.000808   0.000175
     3  C    0.035036  -0.085897  -0.091023   0.379463  -0.024179   0.030131
     4  H    0.003076  -0.003200   0.019430   0.003394  -0.000502  -0.002644
     5  C   -0.029178   0.014083   0.584711  -0.205806  -0.052714  -0.096760
     6  C    0.421440   0.046927  -0.016022  -0.174936  -0.000904  -0.005366
     7  C   -0.016624   0.006547  -0.124826  -0.121582   0.017268   0.002757
     8  O   -0.232699   0.257951   0.005374   0.001837   0.000061   0.000011
     9  H   -0.003613   0.000597   0.013486  -0.032314  -0.003141   0.002752
    10  H    0.000753  -0.000088  -0.012283   0.012542   0.001541  -0.001191
    11  H   -0.010791  -0.001180  -0.015020   0.012927  -0.001525   0.002582
    12  H   -0.001039   0.000512  -0.000629  -0.005425   0.001628   0.000040
    13  O    8.250430  -0.007904   0.001903   0.003583   0.000066  -0.000288
    14  H   -0.007904   0.384311  -0.001183  -0.002392  -0.000126   0.000050
    15  H    0.001903  -0.001183   0.555452  -0.079958  -0.008256  -0.014361
    16  C    0.003583  -0.002392  -0.079958   5.587152   0.416551   0.428441
    17  H    0.000066  -0.000126  -0.008256   0.416551   0.545719  -0.022723
    18  H   -0.000288   0.000050  -0.014361   0.428441  -0.022723   0.558508
    19  H    0.000594   0.000021   0.010055   0.359515  -0.040620  -0.034474
             19
     1  N   -0.005391
     2  H   -0.000110
     3  C   -0.018837
     4  H    0.008601
     5  C    0.031499
     6  C    0.003177
     7  C   -0.020583
     8  O    0.000628
     9  H    0.009062
    10  H    0.002664
    11  H   -0.003070
    12  H   -0.001041
    13  O    0.000594
    14  H    0.000021
    15  H    0.010055
    16  C    0.359515
    17  H   -0.040620
    18  H   -0.034474
    19  H    0.554564
 Mulliken atomic charges:
              1
     1  N   -0.314400
     2  H    0.270336
     3  C   -0.477458
     4  H    0.266698
     5  C    0.381639
     6  C   -0.117236
     7  C   -0.654318
     8  O   -0.191610
     9  H    0.155171
    10  H    0.161350
    11  H    0.177272
    12  H    0.273583
    13  O   -0.415244
    14  H    0.387643
    15  H    0.182309
    16  C   -0.542016
    17  H    0.162065
    18  H    0.150470
    19  H    0.143746
 Sum of Mulliken atomic charges =   0.00000
 Mulliken charges with hydrogens summed into heavy atoms:
              1
     1  N    0.229518
     3  C   -0.210760
     5  C    0.563948
     6  C   -0.117236
     7  C   -0.160524
     8  O    0.196033
    13  O   -0.415244
    16  C   -0.085734
 Sum of Mulliken charges with hydrogens summed into heavy atoms =   0.00000
 Electronic spatial extent (au):  <R**2>=           1085.9896
 Charge=              0.0000 electrons
 Dipole moment (field-independent basis, Debye):
    X=              0.2584    Y=              0.8653    Z=              3.0224  Tot=              3.1544
 Quadrupole moment (field-independent basis, Debye-Ang):
   XX=            -48.9841   YY=            -50.6861   ZZ=            -51.1388
   XY=             -5.2699   XZ=             -8.0276   YZ=             -3.3671
 Traceless Quadrupole moment (field-independent basis, Debye-Ang):
   XX=              1.2856   YY=             -0.4164   ZZ=             -0.8692
   XY=             -5.2699   XZ=             -8.0276   YZ=             -3.3671
 Octapole moment (field-independent basis, Debye-Ang**2):
  XXX=            -31.0790  YYY=              5.8398  ZZZ=              6.0921  XYY=            -12.9131
  XXY=             -2.9251  XXZ=             28.3912  XZZ=             -0.9761  YZZ=              4.4684
  YYZ=              5.1607  XYZ=             10.0662
 Hexadecapole moment (field-independent basis, Debye-Ang**3):
 XXXX=           -758.4552 YYYY=           -424.6180 ZZZZ=           -173.2666 XXXY=              3.3830
 XXXZ=            -76.9626 YYYX=            -25.8783 YYYZ=             -1.2734 ZZZX=            -20.9482
 ZZZY=             -3.7981 XXYY=           -213.3807 XXZZ=           -161.0949 YYZZ=            -93.7539
 XXYZ=            -24.5913 YYXZ=             -1.4414 ZZXY=             -1.4993
 N-N= 4.038219771443D+02 E-N=-1.748192110701D+03  KE= 4.006340863338D+02
 D1PCM: C-PCM CHGder 1st derivatives, ID1Alg=3 FixD1E=F DoIter=F DoCFld=F I1PDM=0.
 Calling FoFJK, ICntrl=      2127 FMM=F ISym2X=0 I1Cent= 0 IOpClX= 0 NMat=1 NMatS=1 NMatT=0.
 ***** Axes restored to original set *****
 -------------------------------------------------------------------
 Center     Atomic                   Forces (Hartrees/Bohr)
 Number     Number              X              Y              Z
 -------------------------------------------------------------------
      1        7           0.001477327    0.001719587    0.000297323
      2        1           0.000432027    0.000465232   -0.000146621
      3        6           0.001371090    0.004467050    0.012798586
      4        1          -0.003607026   -0.001504609    0.001036468
      5        6           0.000543594    0.000515546    0.000045622
      6        6          -0.093137415   -0.069606529   -0.076167032
      7        6           0.000031821   -0.000235053    0.000282233
      8        8          -0.040988889    0.008167489    0.112012629
      9        1          -0.000104251    0.000015586    0.000067518
     10        1           0.000207424    0.000077145    0.000043108
     11        1           0.000064385    0.000188303   -0.000252474
     12        1          -0.000115164   -0.000259289   -0.000016422
     13        8           0.053345514    0.021504913   -0.012543334
     14        1           0.079949707    0.034585103   -0.037661773
     15        1           0.000335505   -0.000032973    0.000129387
     16        6           0.000061861   -0.000092367    0.000266351
     17        1           0.000030809    0.000026207   -0.000033812
     18        1           0.000093875    0.000011517   -0.000078752
     19        1           0.000007807   -0.000012859   -0.000079005
 -------------------------------------------------------------------
 Cartesian Forces:  Max     0.112012629 RMS     0.028499169

 GradGradGradGradGradGradGradGradGradGradGradGradGradGradGradGradGradGrad
 Berny optimization.
 Internal  Forces:  Max     0.092552271 RMS     0.017117539
 Search for a local minimum.
 Step number   1 out of a maximum of  100
 All quantities printed in internal units (Hartrees-Bohrs-Radians)
 Mixed Optimization -- RFO/linear search
 Second derivative matrix not updated -- first step.
 ITU=  0
     Eigenvalues ---    0.00230   0.00299   0.00323   0.00621   0.00831
     Eigenvalues ---    0.01148   0.03286   0.03469   0.04121   0.04355
     Eigenvalues ---    0.04691   0.04828   0.05175   0.05309   0.05444
     Eigenvalues ---    0.05579   0.05631   0.06507   0.16000   0.16000
     Eigenvalues ---    0.16000   0.16000   0.16000   0.16000   0.16000
     Eigenvalues ---    0.16000   0.16000   0.16663   0.16904   0.17516
     Eigenvalues ---    0.18676   0.24997   0.25000   0.27502   0.28939
     Eigenvalues ---    0.29104   0.31255   0.31564   0.33986   0.34208
     Eigenvalues ---    0.34257   0.34422   0.34443   0.34488   0.34521
     Eigenvalues ---    0.34796   0.36335   0.44925   0.45095   0.73220
     Eigenvalues ---    0.73638
 RFO step:  Lambda=-7.27202617D-02 EMin= 2.30000000D-03
 Linear search not attempted -- first point.
 Maximum step size (   0.300) exceeded in Quadratic search.
    -- Step size scaled by   0.647
 Iteration  1 RMS(Cart)=  0.04611538 RMS(Int)=  0.00153813
 Iteration  2 RMS(Cart)=  0.00200220 RMS(Int)=  0.00001033
 Iteration  3 RMS(Cart)=  0.00000339 RMS(Int)=  0.00001011
 Iteration  4 RMS(Cart)=  0.00000000 RMS(Int)=  0.00001011
 Variable       Old X    -DE/DX   Delta X   Delta X   Delta X     New X
                                 (Linear)    (Quad)   (Total)
    R1        1.92063  -0.00015   0.00000  -0.00019  -0.00019   1.92044
    R2        2.76860   0.00198   0.00000   0.00293   0.00293   2.77154
    R3        1.91866  -0.00005   0.00000  -0.00006  -0.00006   1.91859
    R4        2.06514  -0.00133   0.00000  -0.00207  -0.00207   2.06307
    R5        2.93240   0.00086   0.00000   0.00160   0.00160   2.93399
    R6        2.85529  -0.00027   0.00000  -0.00046  -0.00046   2.85483
    R7        2.90131  -0.00008   0.00000  -0.00014  -0.00014   2.90117
    R8        2.07353   0.00008   0.00000   0.00013   0.00013   2.07366
    R9        2.89786   0.00013   0.00000   0.00023   0.00023   2.89809
   R10        2.41793   0.05097   0.00000   0.04098   0.04098   2.45890
   R11        2.41540  -0.03421   0.00000  -0.02736  -0.02736   2.38804
   R12        2.06898  -0.00007   0.00000  -0.00011  -0.00011   2.06888
   R13        2.06460   0.00013   0.00000   0.00021   0.00021   2.06481
   R14        2.06623  -0.00022   0.00000  -0.00034  -0.00034   2.06589
   R15        2.11649  -0.09255   0.00000  -0.15420  -0.15420   1.96229
   R16        2.06007   0.00003   0.00000   0.00004   0.00004   2.06011
   R17        2.06589   0.00002   0.00000   0.00003   0.00003   2.06592
   R18        2.06980   0.00008   0.00000   0.00012   0.00012   2.06992
    A1        1.93184   0.00096   0.00000   0.00281   0.00281   1.93465
    A2        1.87380  -0.00008   0.00000   0.00005   0.00005   1.87386
    A3        1.93776  -0.00053   0.00000  -0.00133  -0.00133   1.93643
    A4        1.88730   0.00067   0.00000   0.00144   0.00145   1.88875
    A5        1.94423  -0.00261   0.00000  -0.00421  -0.00424   1.94000
    A6        1.94257   0.00224   0.00000   0.00713   0.00713   1.94970
    A7        1.89734   0.00124   0.00000   0.00336   0.00337   1.90071
    A8        1.86276  -0.00336   0.00000  -0.01358  -0.01357   1.84919
    A9        1.92681   0.00176   0.00000   0.00532   0.00532   1.93213
   A10        1.95208   0.00017   0.00000   0.00055   0.00055   1.95263
   A11        1.86394   0.00009   0.00000   0.00061   0.00061   1.86454
   A12        1.92738  -0.00004   0.00000  -0.00009  -0.00009   1.92729
   A13        1.89014  -0.00004   0.00000  -0.00014  -0.00014   1.89000
   A14        1.93240  -0.00012   0.00000  -0.00043  -0.00043   1.93197
   A15        1.89540  -0.00006   0.00000  -0.00048  -0.00048   1.89492
   A16        2.18362  -0.05956   0.00000  -0.11940  -0.11940   2.06422
   A17        2.19510  -0.02809   0.00000  -0.05631  -0.05631   2.13879
   A18        1.90424   0.08764   0.00000   0.17573   0.17573   2.07998
   A19        1.93772   0.00001   0.00000  -0.00006  -0.00006   1.93766
   A20        1.91919  -0.00016   0.00000  -0.00036  -0.00036   1.91884
   A21        1.96400  -0.00006   0.00000  -0.00018  -0.00018   1.96383
   A22        1.88058   0.00008   0.00000   0.00021   0.00021   1.88079
   A23        1.88586  -0.00006   0.00000  -0.00031  -0.00031   1.88555
   A24        1.87341   0.00021   0.00000   0.00074   0.00074   1.87415
   A25        2.14336  -0.04428   0.00000  -0.12311  -0.12311   2.02025
   A26        1.94859   0.00003   0.00000   0.00009   0.00009   1.94867
   A27        1.91902   0.00016   0.00000   0.00047   0.00047   1.91949
   A28        1.93165  -0.00004   0.00000  -0.00016  -0.00016   1.93149
   A29        1.89186  -0.00006   0.00000  -0.00009  -0.00009   1.89176
   A30        1.88897  -0.00002   0.00000  -0.00012  -0.00012   1.88885
   A31        1.88196  -0.00007   0.00000  -0.00020  -0.00020   1.88175
    D1        3.04525  -0.00070   0.00000  -0.00309  -0.00309   3.04216
    D2       -1.15407  -0.00031   0.00000  -0.00056  -0.00056  -1.15463
    D3        1.00456   0.00170   0.00000   0.00848   0.00848   1.01304
    D4        0.96598  -0.00089   0.00000  -0.00413  -0.00412   0.96186
    D5        3.04984  -0.00050   0.00000  -0.00159  -0.00159   3.04825
    D6       -1.07470   0.00152   0.00000   0.00745   0.00745  -1.06726
    D7        3.06283   0.00080   0.00000   0.00300   0.00300   3.06583
    D8        0.99785   0.00069   0.00000   0.00249   0.00249   1.00034
    D9       -1.05991   0.00073   0.00000   0.00277   0.00277  -1.05715
   D10       -1.14247   0.00083   0.00000   0.00437   0.00437  -1.13811
   D11        3.07573   0.00072   0.00000   0.00386   0.00386   3.07959
   D12        1.01797   0.00076   0.00000   0.00413   0.00413   1.02210
   D13        0.89527  -0.00150   0.00000  -0.00705  -0.00704   0.88823
   D14       -1.16971  -0.00161   0.00000  -0.00756  -0.00755  -1.17726
   D15        3.05571  -0.00157   0.00000  -0.00728  -0.00728   3.04844
   D16       -0.95023  -0.00034   0.00000  -0.00537  -0.00540  -0.95563
   D17        2.16592   0.00029   0.00000  -0.00184  -0.00185   2.16407
   D18       -3.00581  -0.00035   0.00000  -0.00285  -0.00286  -3.00867
   D19        0.11034   0.00028   0.00000   0.00068   0.00069   0.11104
   D20        1.21829  -0.00083   0.00000  -0.00184  -0.00183   1.21645
   D21       -1.94875  -0.00020   0.00000   0.00168   0.00172  -1.94703
   D22        1.04540  -0.00010   0.00000  -0.00045  -0.00045   1.04495
   D23        3.12492  -0.00010   0.00000  -0.00046  -0.00046   3.12445
   D24       -1.07087   0.00001   0.00000   0.00011   0.00011  -1.07076
   D25        3.09471   0.00009   0.00000   0.00052   0.00052   3.09523
   D26       -1.10896   0.00009   0.00000   0.00051   0.00051  -1.10845
   D27        0.97844   0.00020   0.00000   0.00108   0.00108   0.97952
   D28       -1.11222  -0.00008   0.00000  -0.00041  -0.00041  -1.11263
   D29        0.96730  -0.00008   0.00000  -0.00042  -0.00042   0.96687
   D30        3.05469   0.00003   0.00000   0.00015   0.00015   3.05484
   D31        0.98509  -0.00004   0.00000  -0.00005  -0.00005   0.98504
   D32        3.08557   0.00002   0.00000   0.00021   0.00021   3.08578
   D33       -1.12031   0.00000   0.00000   0.00015   0.00015  -1.12016
   D34       -3.12633   0.00006   0.00000   0.00028   0.00028  -3.12605
   D35       -1.02585   0.00011   0.00000   0.00053   0.00053  -1.02532
   D36        1.05146   0.00010   0.00000   0.00048   0.00048   1.05194
   D37       -1.05325  -0.00009   0.00000  -0.00045  -0.00045  -1.05370
   D38        1.04722  -0.00004   0.00000  -0.00019  -0.00019   1.04703
   D39        3.12453  -0.00005   0.00000  -0.00025  -0.00025   3.12429
   D40       -3.08946  -0.00167   0.00000  -0.00812  -0.00817  -3.09764
   D41        0.07397  -0.00111   0.00000  -0.00893  -0.00888   0.06509
         Item               Value     Threshold  Converged?
 Maximum Force            0.092552     0.000450     NO 
 RMS     Force            0.017118     0.000300     NO 
 Maximum Displacement     0.282358     0.001800     NO 
 RMS     Displacement     0.046827     0.001200     NO 
 Predicted change in Energy=-3.512399D-02
 GradGradGradGradGradGradGradGradGradGradGradGradGradGradGradGradGradGrad

                          Input orientation:                          
 ---------------------------------------------------------------------
 Center     Atomic      Atomic             Coordinates (Angstroms)
 Number     Number       Type             X           Y           Z
 ---------------------------------------------------------------------
      1          7           0       -0.037553    1.894080   -0.046344
      2          1           0       -0.256663    2.048142    0.933975
      3          6           0       -0.087096    0.465365   -0.373963
      4          1           0        0.052931    0.357180   -1.451258
      5          6           0        1.035125   -0.317063    0.360203
      6          6           0       -1.441196   -0.131180   -0.069334
      7          6           0        0.933556   -1.829002    0.113904
      8          8           0       -1.918839    0.006350    1.133185
      9          1           0        1.014967   -2.059363   -0.953289
     10          1           0        1.746462   -2.345994    0.629448
     11          1           0       -0.006079   -2.250735    0.480460
     12          1           0       -0.714966    2.415754   -0.593842
     13          8           0       -2.130227   -0.733630   -0.940669
     14          1           0       -2.832904   -0.453210    1.310850
     15          1           0        0.900620   -0.133231    1.433634
     16          6           0        2.414400    0.208399   -0.056246
     17          1           0        2.509030    1.278924    0.126731
     18          1           0        3.196443   -0.308153    0.506562
     19          1           0        2.592076    0.025962   -1.121587
 ---------------------------------------------------------------------
                    Distance matrix (angstroms):
                    1          2          3          4          5
     1  N    0.000000
     2  H    1.016253   0.000000
     3  C    1.466634   2.060251   0.000000
     4  H    2.084234   2.940159   1.091731   0.000000
     5  C    2.490998   2.755380   1.552602   2.168109   0.000000
     6  C    2.464228   2.675666   1.510712   2.092994   2.520162
     7  C    3.850984   4.137799   2.558098   2.829244   1.535233
     8  O    2.914455   2.640346   2.416086   3.269603   3.070505
     9  H    4.190473   4.695786   2.815034   2.648239   2.182036
    10  H    4.649477   4.838767   3.503214   3.808482   2.166808
    11  H    4.178278   4.329989   2.848474   3.245957   2.199467
    12  H    1.015276   1.636889   2.060724   2.358507   3.382500
    13  O    3.476199   3.842237   2.435801   2.493340   3.447499
    14  H    3.894320   3.610514   3.349901   4.076029   3.985462
    15  H    2.679644   2.519395   2.145066   3.046585   1.097333
    16  C    2.975516   3.391131   2.534652   2.746768   1.533604
    17  H    2.625540   2.982012   2.766305   3.061386   2.184966
    18  H    3.951489   4.202231   3.486443   3.762631   2.166286
    19  H    3.400141   4.053375   2.816022   2.581791   2.176572
                    6          7          8          9         10
     6  C    0.000000
     7  C    2.925000   0.000000
     8  O    1.301196   3.541696   0.000000
     9  H    3.245305   1.094803   4.150634   0.000000
    10  H    3.943966   1.092650   4.384257   1.767003   0.000000
    11  H    2.618081   1.093223   3.029709   1.770535   1.761440
    12  H    2.699887   4.608306   3.199556   4.811294   5.498119
    13  O    1.263698   3.420341   2.212042   3.413206   4.482600
    14  H    1.986319   4.184699   1.038400   4.744699   5.001753
    15  H    2.782628   2.149049   2.838855   3.069277   2.501696
    16  C    3.870544   2.524451   4.498059   2.811733   2.727863
    17  H    4.198943   3.484464   4.715762   3.813506   3.738216
    18  H    4.676609   2.754600   5.163107   3.155430   2.504064
    19  H    4.171236   2.778132   5.043088   2.619958   3.067142
                   11         12         13         14         15
    11  H    0.000000
    12  H    4.840740   0.000000
    13  O    2.972074   3.470140   0.000000
    14  H    3.451316   4.042829   2.375233   0.000000
    15  H    2.492883   3.635671   3.896643   3.749221   0.000000
    16  C    3.492007   3.867087   4.724750   5.462680   2.151275
    17  H    4.348493   3.493674   5.168406   5.739223   2.507820
    18  H    3.745724   4.891797   5.536146   6.084484   2.482109
    19  H    3.807928   4.114140   4.786424   5.964626   3.068472
                   16         17         18         19
    16  C    0.000000
    17  H    1.090165   0.000000
    18  H    1.093238   1.770768   0.000000
    19  H    1.095355   1.770623   1.768548   0.000000
 Stoichiometry    C5H11NO2
 Framework group  C1[X(C5H11NO2)]
 Deg. of freedom    51
 Full point group                 C1      NOp   1
 Largest Abelian subgroup         C1      NOp   1
 Largest concise Abelian subgroup C1      NOp   1
                         Standard orientation:                         
 ---------------------------------------------------------------------
 Center     Atomic      Atomic             Coordinates (Angstroms)
 Number     Number       Type             X           Y           Z
 ---------------------------------------------------------------------
      1          7           0        0.035880    1.950396   -0.107827
      2          1           0       -0.196866    2.112190    0.868093
      3          6           0        0.020500    0.516879   -0.417351
      4          1           0        0.174229    0.398000   -1.491647
      5          6           0        1.151416   -0.231684    0.338463
      6          6           0       -1.323633   -0.104845   -0.118993
      7          6           0        1.084949   -1.748487    0.110791
      8          8           0       -1.816839    0.037673    1.076644
      9          1           0        1.182596   -1.990640   -0.952421
     10          1           0        1.903257   -2.241171    0.641373
     11          1           0        0.150753   -2.185708    0.473076
     12          1           0       -0.646735    2.450281   -0.669020
     13          8           0       -1.990295   -0.733116   -0.989494
     14          1           0       -2.722658   -0.439223    1.250818
     15          1           0        1.001624   -0.037113    1.407969
     16          6           0        2.523428    0.318095   -0.070516
     17          1           0        2.593107    1.392663    0.099505
     18          1           0        3.310371   -0.174213    0.506997
     19          1           0        2.716263    0.125954   -1.131507
 ---------------------------------------------------------------------
 Rotational constants (GHZ):      2.8277773      1.5284499      1.2242037
 Standard basis: 6-311++G(d,p) (5D, 7F)
 There are   253 symmetry adapted basis functions of A   symmetry.
 Integral buffers will be    262144 words long.
 Raffenetti 2 integral format.
 Two-electron integral symmetry is turned on.
   253 basis functions,   387 primitive gaussians,   261 cartesian basis functions
    32 alpha electrons       32 beta electrons
       nuclear repulsion energy       405.0237573856 Hartrees.
 NAtoms=   19 NActive=   19 NUniq=   19 SFac= 1.00D+00 NAtFMM=   50 NAOKFM=F Big=F
 ------------------------------------------------------------------------------
 Polarizable Continuum Model (PCM)
 =================================
 Model                : C-PCM.
 Atomic radii         : UFF (Universal Force Field).
 Polarization charges : Total charges.
 Charge compensation  : None.
 Solution method      : Matrix inversion.
 Cavity type          : Scaled VdW (van der Waals Surface) (Alpha=1.100).
 Cavity algorithm     : GePol (No added spheres)
                        Default sphere list used, NSphG=   19.
                        Lebedev-Laikov grids with approx.  5.0 points / Ang**2.
                        Smoothing algorithm: Karplus/York (Gamma=1.0000).
                        Polarization charges: spherical gaussians, with
                                              point-specific exponents (IZeta= 3).
                        Self-potential: point-specific (ISelfS= 7).
                        Self-field    : sphere-specific E.n sum rule (ISelfD= 2).
 1st derivatives      : Analytical E(r).r(x)/FMM algorithm (CHGder, D1EAlg=3).
                        Cavity 1st derivative terms included.
 Solvent              : Water, Eps=  78.355300 Eps(inf)=   1.777849
 ------------------------------------------------------------------------------
 Spheres list:
 ISph  on   Nord    Re0     Alpha      Xe            Ye            Ze
    1   N      1    1.830   1.100      0.035880      1.950396     -0.107827
    2   H      2    1.443   1.100     -0.196866      2.112190      0.868093
    3   C      3    1.926   1.100      0.020500      0.516879     -0.417351
    4   H      4    1.443   1.100      0.174229      0.398000     -1.491647
    5   C      5    1.926   1.100      1.151416     -0.231684      0.338463
    6   C      6    1.926   1.100     -1.323633     -0.104845     -0.118993
    7   C      7    1.926   1.100      1.084949     -1.748487      0.110791
    8   O      8    1.750   1.100     -1.816839      0.037673      1.076644
    9   H      9    1.443   1.100      1.182596     -1.990640     -0.952421
   10   H     10    1.443   1.100      1.903257     -2.241171      0.641373
   11   H     11    1.443   1.100      0.150753     -2.185708      0.473076
   12   H     12    1.443   1.100     -0.646735      2.450281     -0.669020
   13   O     13    1.750   1.100     -1.990295     -0.733116     -0.989494
   14   H     14    1.443   1.100     -2.722658     -0.439223      1.250818
   15   H     15    1.443   1.100      1.001624     -0.037113      1.407969
   16   C     16    1.926   1.100      2.523428      0.318095     -0.070516
   17   H     17    1.443   1.100      2.593107      1.392663      0.099505
   18   H     18    1.443   1.100      3.310371     -0.174213      0.506997
   19   H     19    1.443   1.100      2.716263      0.125954     -1.131507
 ------------------------------------------------------------------------------
 One-electron integrals computed using PRISM.
 NBasis=   253 RedAO= T  NBF=   253
 NBsUse=   253 1.00D-06 NBFU=   253
 Initial guess read from the read-write file.
 B after Tr=     0.000000    0.000000    0.000000
         Rot=    1.000000    0.000000    0.000000    0.000000 Ang=   0.00 deg.
 Initial guess orbital symmetries:
       Occupied  (A) (A) (A) (A) (A) (A) (A) (A) (A) (A) (A) (A)
                 (A) (A) (A) (A) (A) (A) (A) (A) (A) (A) (A) (A)
                 (A) (A) (A) (A) (A) (A) (A) (A)
       Virtual   (A) (A) (A) (A) (A) (A) (A) (A) (A) (A) (A) (A)
                 (A) (A) (A) (A) (A) (A) (A) (A) (A) (A) (A) (A)
                 (A) (A) (A) (A) (A) (A) (A) (A) (A) (A) (A) (A)
                 (A) (A) (A) (A) (A) (A) (A) (A) (A) (A) (A) (A)
                 (A) (A) (A) (A) (A) (A) (A) (A) (A) (A) (A) (A)
                 (A) (A) (A) (A) (A) (A) (A) (A) (A) (A) (A) (A)
                 (A) (A) (A) (A) (A) (A) (A) (A) (A) (A) (A) (A)
                 (A) (A) (A) (A) (A) (A) (A) (A) (A) (A) (A) (A)
                 (A) (A) (A) (A) (A) (A) (A) (A) (A) (A) (A) (A)
                 (A) (A) (A) (A) (A) (A) (A) (A) (A) (A) (A) (A)
                 (A) (A) (A) (A) (A) (A) (A) (A) (A) (A) (A) (A)
                 (A) (A) (A) (A) (A) (A) (A) (A) (A) (A) (A) (A)
                 (A) (A) (A) (A) (A) (A) (A) (A) (A) (A) (A) (A)
                 (A) (A) (A) (A) (A) (A) (A) (A) (A) (A) (A) (A)
                 (A) (A) (A) (A) (A) (A) (A) (A) (A) (A) (A) (A)
                 (A) (A) (A) (A) (A) (A) (A) (A) (A) (A) (A) (A)
                 (A) (A) (A) (A) (A) (A) (A) (A) (A) (A) (A) (A)
                 (A) (A) (A) (A) (A) (A) (A) (A) (A) (A) (A) (A)
                 (A) (A) (A) (A) (A)
 Harris functional with IExCor=  402 diagonalized for initial guess.
 ExpMin= 3.60D-02 ExpMax= 8.59D+03 ExpMxC= 1.30D+03 IAcc=3 IRadAn=         0 AccDes= 0.00D+00
 HarFok:  IExCor=  402 AccDes= 0.00D+00 IRadAn=         0 IDoV= 1
 ScaDFX=  1.000000  1.000000  1.000000  1.000000
 FoFCou: FMM=F IPFlag=           0 FMFlag=      100000 FMFlg1=           0
         NFxFlg=           0 DoJE=T BraDBF=F KetDBF=T FulRan=T
         Omega=  0.000000  0.000000  1.000000  0.000000  0.000000 ICntrl=     500 IOpCl=  0
         NMat0=    1 NMatS0=    1 NMatT0=    0 NMatD0=    1 NMtDS0=    0 NMtDT0=    0
         I1Cent=           4 NGrid=           0.
 Petite list used in FoFCou.
 Requested convergence on RMS density matrix=1.00D-08 within 128 cycles.
 Requested convergence on MAX density matrix=1.00D-06.
 Requested convergence on             energy=1.00D-06.
 No special actions if energy rises.
 Error on total polarization charges =  0.01369
 SCF Done:  E(RB3LYP) =  -402.501221355     A.U. after   12 cycles
             Convg  =    0.3415D-08             -V/T =  2.0045
 D1PCM: C-PCM CHGder 1st derivatives, ID1Alg=3 FixD1E=F DoIter=F DoCFld=F I1PDM=0.
 Calling FoFJK, ICntrl=      2127 FMM=F ISym2X=0 I1Cent= 0 IOpClX= 0 NMat=1 NMatS=1 NMatT=0.
 ***** Axes restored to original set *****
 -------------------------------------------------------------------
 Center     Atomic                   Forces (Hartrees/Bohr)
 Number     Number              X              Y              Z
 -------------------------------------------------------------------
      1        7           0.001795171    0.001842906   -0.000311917
      2        1           0.000121490   -0.000054175   -0.000229873
      3        6           0.003270979    0.003848428    0.009125268
      4        1          -0.000966716   -0.000459064    0.000262100
      5        6           0.000267327    0.001121330   -0.000798951
      6        6          -0.049052040   -0.043056098   -0.064670284
      7        6           0.000254722    0.000052992    0.000339425
      8        8          -0.033529129   -0.006541106    0.048582192
      9        1          -0.000098854   -0.000021751   -0.000009060
     10        1           0.000103145   -0.000087149    0.000033007
     11        1          -0.000041327    0.000003177   -0.000155926
     12        1          -0.000198953   -0.000198225    0.000129254
     13        8           0.031204667    0.022834988    0.027566750
     14        1           0.046202552    0.021144862   -0.020142527
     15        1           0.000222152   -0.000009474    0.000045020
     16        6           0.000200622   -0.000411032    0.000413958
     17        1          -0.000031121   -0.000004797   -0.000050207
     18        1           0.000257506   -0.000013719   -0.000062867
     19        1           0.000017809    0.000007908   -0.000065361
 -------------------------------------------------------------------
 Cartesian Forces:  Max     0.064670284 RMS     0.017437398

 GradGradGradGradGradGradGradGradGradGradGradGradGradGradGradGradGradGrad
 Berny optimization.
 Using GEDIIS/GDIIS optimizer.
 Internal  Forces:  Max     0.053468634 RMS     0.008786983
 Search for a local minimum.
 Step number   2 out of a maximum of  100
 All quantities printed in internal units (Hartrees-Bohrs-Radians)
 Mixed Optimization -- RFO/linear search
 Update second derivatives using D2CorX and points    1    2
 DE= -3.30D-02 DEPred=-3.51D-02 R= 9.40D-01
 SS=  1.41D+00  RLast= 3.01D-01 DXNew= 5.0454D-01 9.0290D-01
 Trust test= 9.40D-01 RLast= 3.01D-01 DXMaxT set to 5.05D-01
 ITU=  1  0
 Use linear search instead of GDIIS.
     Eigenvalues ---    0.00230   0.00299   0.00323   0.00621   0.00831
     Eigenvalues ---    0.01254   0.03285   0.03469   0.04111   0.04303
     Eigenvalues ---    0.04691   0.04828   0.05182   0.05311   0.05443
     Eigenvalues ---    0.05581   0.05629   0.06526   0.15662   0.16000
     Eigenvalues ---    0.16000   0.16000   0.16000   0.16000   0.16000
     Eigenvalues ---    0.16000   0.16004   0.16659   0.16909   0.17550
     Eigenvalues ---    0.18750   0.23617   0.27179   0.27503   0.28939
     Eigenvalues ---    0.29104   0.31052   0.33986   0.34208   0.34257
     Eigenvalues ---    0.34422   0.34443   0.34484   0.34521   0.34796
     Eigenvalues ---    0.36300   0.36693   0.44926   0.45095   0.69870
     Eigenvalues ---    0.77865
 RFO step:  Lambda=-1.20590759D-02 EMin= 2.29999320D-03
 Quartic linear search produced a step of  0.70436.
 Iteration  1 RMS(Cart)=  0.03599864 RMS(Int)=  0.00426191
 Iteration  2 RMS(Cart)=  0.00465870 RMS(Int)=  0.00004614
 Iteration  3 RMS(Cart)=  0.00003641 RMS(Int)=  0.00003930
 Iteration  4 RMS(Cart)=  0.00000000 RMS(Int)=  0.00003930
 Variable       Old X    -DE/DX   Delta X   Delta X   Delta X     New X
                                 (Linear)    (Quad)   (Total)
    R1        1.92044  -0.00025  -0.00013  -0.00074  -0.00087   1.91957
    R2        2.77154   0.00151   0.00206   0.00394   0.00600   2.77754
    R3        1.91859  -0.00004  -0.00004  -0.00008  -0.00012   1.91847
    R4        2.06307  -0.00034  -0.00146   0.00044  -0.00101   2.06206
    R5        2.93399   0.00035   0.00112   0.00044   0.00156   2.93556
    R6        2.85483   0.00512  -0.00032   0.02722   0.02690   2.88173
    R7        2.90117   0.00000  -0.00010   0.00013   0.00003   2.90120
    R8        2.07366   0.00002   0.00009  -0.00005   0.00004   2.07370
    R9        2.89809   0.00020   0.00016   0.00086   0.00103   2.89912
   R10        2.45890   0.02317   0.02886   0.01585   0.04472   2.50362
   R11        2.38804  -0.04690  -0.01927  -0.08166  -0.10093   2.28712
   R12        2.06888   0.00001  -0.00007   0.00016   0.00008   2.06896
   R13        2.06481   0.00014   0.00015   0.00044   0.00058   2.06539
   R14        2.06589  -0.00003  -0.00024   0.00021  -0.00003   2.06586
   R15        1.96229  -0.05347  -0.10861  -0.12134  -0.22996   1.73234
   R16        2.06011  -0.00001   0.00003  -0.00008  -0.00005   2.06007
   R17        2.06592   0.00015   0.00002   0.00070   0.00073   2.06665
   R18        2.06992   0.00006   0.00008   0.00018   0.00026   2.07018
    A1        1.93465  -0.00001   0.00198  -0.00448  -0.00251   1.93214
    A2        1.87386   0.00004   0.00004  -0.00173  -0.00170   1.87215
    A3        1.93643  -0.00030  -0.00094  -0.00251  -0.00346   1.93297
    A4        1.88875   0.00014   0.00102  -0.00690  -0.00585   1.88290
    A5        1.94000  -0.00175  -0.00298  -0.00521  -0.00841   1.93159
    A6        1.94970   0.00159   0.00502   0.01239   0.01741   1.96711
    A7        1.90071   0.00043   0.00238  -0.00540  -0.00302   1.89769
    A8        1.84919  -0.00155  -0.00956  -0.00422  -0.01370   1.83550
    A9        1.93213   0.00112   0.00375   0.00853   0.01224   1.94437
   A10        1.95263   0.00007   0.00038   0.00097   0.00136   1.95399
   A11        1.86454  -0.00008   0.00043  -0.00048  -0.00005   1.86449
   A12        1.92729   0.00038  -0.00006   0.00481   0.00475   1.93204
   A13        1.89000   0.00006  -0.00010  -0.00124  -0.00135   1.88865
   A14        1.93197  -0.00036  -0.00030  -0.00262  -0.00294   1.92903
   A15        1.89492  -0.00007  -0.00034  -0.00158  -0.00192   1.89299
   A16        2.06422  -0.02104  -0.08410  -0.01007  -0.09421   1.97001
   A17        2.13879   0.00173  -0.03966   0.07071   0.03101   2.16980
   A18        2.07998   0.01932   0.12378  -0.06036   0.06339   2.14336
   A19        1.93766  -0.00001  -0.00004  -0.00040  -0.00045   1.93721
   A20        1.91884   0.00006  -0.00025   0.00144   0.00119   1.92003
   A21        1.96383   0.00004  -0.00012   0.00049   0.00037   1.96419
   A22        1.88079  -0.00001   0.00015  -0.00012   0.00003   1.88081
   A23        1.88555  -0.00010  -0.00022  -0.00141  -0.00163   1.88393
   A24        1.87415   0.00002   0.00052  -0.00006   0.00046   1.87461
   A25        2.02025  -0.02204  -0.08672  -0.07199  -0.15871   1.86154
   A26        1.94867  -0.00008   0.00006  -0.00105  -0.00099   1.94769
   A27        1.91949   0.00032   0.00033   0.00309   0.00342   1.92291
   A28        1.93149  -0.00003  -0.00011  -0.00046  -0.00057   1.93092
   A29        1.89176  -0.00007  -0.00007   0.00002  -0.00005   1.89171
   A30        1.88885  -0.00002  -0.00008  -0.00086  -0.00094   1.88791
   A31        1.88175  -0.00013  -0.00014  -0.00078  -0.00093   1.88082
    D1        3.04216  -0.00013  -0.00218   0.00455   0.00235   3.04451
    D2       -1.15463  -0.00056  -0.00039  -0.00954  -0.00990  -1.16453
    D3        1.01304   0.00077   0.00597   0.00687   0.01284   1.02588
    D4        0.96186   0.00001  -0.00290   0.01127   0.00834   0.97019
    D5        3.04825  -0.00042  -0.00112  -0.00283  -0.00392   3.04433
    D6       -1.06726   0.00092   0.00525   0.01359   0.01882  -1.04844
    D7        3.06583   0.00077   0.00211   0.00638   0.00846   3.07428
    D8        1.00034   0.00071   0.00175   0.00764   0.00936   1.00970
    D9       -1.05715   0.00063   0.00195   0.00720   0.00912  -1.04803
   D10       -1.13811   0.00015   0.00307  -0.00872  -0.00563  -1.14374
   D11        3.07959   0.00008   0.00272  -0.00746  -0.00473   3.07486
   D12        1.02210   0.00001   0.00291  -0.00789  -0.00497   1.01713
   D13        0.88823  -0.00084  -0.00496  -0.01216  -0.01710   0.87112
   D14       -1.17726  -0.00090  -0.00532  -0.01090  -0.01620  -1.19346
   D15        3.04844  -0.00098  -0.00513  -0.01133  -0.01644   3.03200
   D16       -0.95563  -0.00024  -0.00381  -0.02009  -0.02401  -0.97964
   D17        2.16407   0.00015  -0.00130  -0.00631  -0.00776   2.15631
   D18       -3.00867  -0.00032  -0.00201  -0.01586  -0.01785  -3.02652
   D19        0.11104   0.00007   0.00049  -0.00209  -0.00161   0.10943
   D20        1.21645  -0.00052  -0.00129  -0.01147  -0.01262   1.20383
   D21       -1.94703  -0.00014   0.00121   0.00231   0.00362  -1.94340
   D22        1.04495   0.00006  -0.00032   0.00162   0.00130   1.04625
   D23        3.12445   0.00008  -0.00033   0.00214   0.00182   3.12627
   D24       -1.07076   0.00017   0.00008   0.00338   0.00346  -1.06730
   D25        3.09523   0.00005   0.00036   0.00082   0.00118   3.09641
   D26       -1.10845   0.00007   0.00036   0.00135   0.00170  -1.10675
   D27        0.97952   0.00015   0.00076   0.00258   0.00334   0.98286
   D28       -1.11263  -0.00022  -0.00029  -0.00340  -0.00369  -1.11632
   D29        0.96687  -0.00020  -0.00030  -0.00287  -0.00317   0.96370
   D30        3.05484  -0.00011   0.00011  -0.00164  -0.00153   3.05331
   D31        0.98504  -0.00006  -0.00004  -0.00137  -0.00141   0.98364
   D32        3.08578   0.00002   0.00014   0.00004   0.00019   3.08596
   D33       -1.12016   0.00004   0.00011   0.00074   0.00085  -1.11931
   D34       -3.12605   0.00005   0.00020   0.00145   0.00164  -3.12441
   D35       -1.02532   0.00012   0.00038   0.00286   0.00324  -1.02208
   D36        1.05194   0.00014   0.00034   0.00356   0.00389   1.05583
   D37       -1.05370  -0.00014  -0.00032  -0.00259  -0.00290  -1.05660
   D38        1.04703  -0.00007  -0.00013  -0.00117  -0.00130   1.04573
   D39        3.12429  -0.00004  -0.00017  -0.00048  -0.00065   3.12364
   D40       -3.09764  -0.00117  -0.00576  -0.02100  -0.02670  -3.12433
   D41        0.06509  -0.00134  -0.00626  -0.03597  -0.04228   0.02281
         Item               Value     Threshold  Converged?
 Maximum Force            0.053469     0.000450     NO 
 RMS     Force            0.008787     0.000300     NO 
 Maximum Displacement     0.275241     0.001800     NO 
 RMS     Displacement     0.039359     0.001200     NO 
 Predicted change in Energy=-1.269882D-02
 GradGradGradGradGradGradGradGradGradGradGradGradGradGradGradGradGradGrad

                          Input orientation:                          
 ---------------------------------------------------------------------
 Center     Atomic      Atomic             Coordinates (Angstroms)
 Number     Number       Type             X           Y           Z
 ---------------------------------------------------------------------
      1          7           0       -0.047092    1.888611   -0.041683
      2          1           0       -0.269195    2.041284    0.937701
      3          6           0       -0.105606    0.457309   -0.370767
      4          1           0        0.040791    0.354742   -1.447221
      5          6           0        1.021708   -0.320465    0.362291
      6          6           0       -1.474654   -0.154811   -0.094213
      7          6           0        0.930291   -1.832842    0.114609
      8          8           0       -1.870420    0.013586    1.158889
      9          1           0        1.014593   -2.061309   -0.952810
     10          1           0        1.745381   -2.346305    0.630884
     11          1           0       -0.007834   -2.260972    0.477557
     12          1           0       -0.723510    2.411509   -0.589125
     13          8           0       -2.144239   -0.731011   -0.921528
     14          1           0       -2.687252   -0.395735    1.233750
     15          1           0        0.885719   -0.139962    1.436120
     16          6           0        2.401598    0.209434   -0.048463
     17          1           0        2.491562    1.280013    0.136392
     18          1           0        3.185874   -0.304871    0.514041
     19          1           0        2.582369    0.030388   -1.114000
 ---------------------------------------------------------------------
                    Distance matrix (angstroms):
                    1          2          3          4          5
     1  N    0.000000
     2  H    1.015792   0.000000
     3  C    1.469811   2.061026   0.000000
     4  H    2.082309   2.937408   1.091194   0.000000
     5  C    2.487075   2.752342   1.553429   2.166203   0.000000
     6  C    2.493244   2.709393   1.524948   2.094481   2.543159
     7  C    3.850833   4.138248   2.559973   2.831262   1.535248
     8  O    2.877780   2.593146   2.377248   3.249758   3.018370
     9  H    4.190369   4.696106   2.817278   2.651421   2.181761
    10  H    4.647560   4.837726   3.505669   3.810486   2.167919
    11  H    4.182127   4.334680   2.849257   3.247937   2.199729
    12  H    1.015212   1.635440   2.061160   2.356008   3.378559
    13  O    3.469088   3.828595   2.423111   2.495911   3.440924
    14  H    3.716909   3.445825   3.157065   3.897825   3.810707
    15  H    2.677526   2.517952   2.145763   3.045044   1.097352
    16  C    2.969135   3.385459   2.539959   2.747917   1.534147
    17  H    2.616652   2.973788   2.771161   3.061084   2.184727
    18  H    3.946170   4.197790   3.492513   3.764729   2.169537
    19  H    3.393659   4.047790   2.821324   2.583769   2.176740
                    6          7          8          9         10
     6  C    0.000000
     7  C    2.939924   0.000000
     8  O    1.324859   3.513374   0.000000
     9  H    3.250889   1.094846   4.133734   0.000000
    10  H    3.961949   1.092958   4.349930   1.767304   0.000000
    11  H    2.629524   1.093209   3.017789   1.769512   1.761974
    12  H    2.719403   4.609209   3.181350   4.812418   5.497330
    13  O    1.210290   3.426418   2.226552   3.427665   4.488686
    14  H    1.814366   4.050231   0.916713   4.610731   4.880206
    15  H    2.813094   2.148074   2.774299   3.068415   2.501074
    16  C    3.893596   2.522345   4.443668   2.810320   2.724689
    17  H    4.224070   3.482514   4.655773   3.812116   3.735169
    18  H    4.702448   2.753525   5.107187   3.154550   2.501225
    19  H    4.187326   2.776772   4.999363   2.618988   3.064937
                   11         12         13         14         15
    11  H    0.000000
    12  H    4.845831   0.000000
    13  O    2.976986   3.464736   0.000000
    14  H    3.351152   3.880692   2.247776   0.000000
    15  H    2.493183   3.633351   3.884390   3.587826   0.000000
    16  C    3.490696   3.861055   4.723485   5.282679   2.150338
    17  H    4.347637   3.484731   5.162758   5.552697   2.506861
    18  H    3.745322   4.886612   5.536476   5.917758   2.483574
    19  H    3.806906   4.107806   4.791409   5.784671   3.067695
                   16         17         18         19
    16  C    0.000000
    17  H    1.090140   0.000000
    18  H    1.093622   1.771029   0.000000
    19  H    1.095493   1.770110   1.768370   0.000000
 Stoichiometry    C5H11NO2
 Framework group  C1[X(C5H11NO2)]
 Deg. of freedom    51
 Full point group                 C1      NOp   1
 Largest Abelian subgroup         C1      NOp   1
 Largest concise Abelian subgroup C1      NOp   1
                         Standard orientation:                         
 ---------------------------------------------------------------------
 Center     Atomic      Atomic             Coordinates (Angstroms)
 Number     Number       Type             X           Y           Z
 ---------------------------------------------------------------------
      1          7           0        0.021841    1.946822   -0.116026
      2          1           0       -0.209307    2.110376    0.859501
      3          6           0        0.001442    0.509119   -0.420884
      4          1           0        0.156157    0.392073   -1.494695
      5          6           0        1.144193   -0.227144    0.330899
      6          6           0       -1.353088   -0.132896   -0.140651
      7          6           0        1.092524   -1.745341    0.108652
      8          8           0       -1.759706    0.046593    1.107427
      9          1           0        1.188314   -1.989657   -0.954279
     10          1           0        1.917610   -2.229047    0.637633
     11          1           0        0.163640   -2.191011    0.474242
     12          1           0       -0.664691    2.442962   -0.675646
     13          8           0       -2.003391   -0.739913   -0.961283
     14          1           0       -2.566274   -0.382073    1.185251
     15          1           0        0.997918   -0.031978    1.400804
     16          6           0        2.512368    0.330689   -0.082055
[...]
 465290,0.00164121,0.03511399,0.06388280,0.00350545,-0.01116452,-0.0387
 8157,0.00073750,-0.00650445,-0.00152030,0.00188725,-0.04955463,-0.0159
 6485,-0.00134798,0.06390922,0.00016384,-0.00468537,-0.00587395,0.00029
 681,-0.00079653,0.00171610,0.04265785,-0.02008259,-0.29893761,-0.04152
 931,0.02478680,0.32442522,0.00234349,0.00409471,0.00084982,0.00027300,
 -0.00050284,0.00004313,-0.11225858,0.02781672,-0.02824143,0.00169591,-
 0.00169872,0.00001955,0.45501393,0.02593528,-0.02788790,0.02049544,0.0
 0042003,0.00160822,0.00012479,0.01252089,-0.08481456,0.01441394,-0.000
 86431,0.00097594,0.00033489,0.00723383,0.46323253,0.00507664,-0.005343
 92,0.00427401,0.00158181,-0.00120179,0.00145037,-0.02563539,0.02230209
 ,-0.10252437,-0.02405647,0.01653076,-0.01694809,-0.02339391,0.02653493
 ,0.57141201,0.00920732,-0.00121498,-0.00355540,-0.00032836,-0.00053844
 ,-0.00076239,-0.15213146,-0.02511811,0.02562080,-0.00636078,-0.0016818
 4,-0.00150524,-0.03129017,0.00146705,-0.00250163,0.65735245,-0.0277612
 0,-0.03616902,-0.00018855,-0.00051315,0.00003113,0.00025297,-0.0099868
 0,-0.08430248,0.01539391,0.00061776,0.00135573,-0.00140643,0.01146474,
 0.01543591,-0.01131531,0.21480153,0.36572484,-0.00645415,-0.00493413,0
 .00143197,-0.00327169,-0.00353385,-0.00068234,0.02032655,0.01471625,-0
 .08648607,0.03192052,0.01270825,-0.00992191,-0.01489244,-0.00936045,0.
 00645664,0.12598015,0.15361231,0.66801262,-0.00402751,0.00393248,-0.00
 380293,-0.00002209,-0.00022766,-0.00008837,0.00256993,0.02282405,0.006
 16964,0.00060526,-0.00045578,0.00023306,-0.07811764,-0.00418818,-0.001
 36139,-0.00043479,0.00307209,-0.00049943,0.57062080,0.00174009,-0.0002
 5372,0.00153093,0.00016187,-0.00006839,0.00011651,0.00280281,-0.021048
 58,-0.00106080,-0.00103656,0.00101815,-0.00054139,-0.00617847,-0.17267
 109,-0.01763018,0.00163982,0.00225552,-0.00056034,-0.00322543,0.459424
 36,-0.00271868,0.00271167,-0.00191284,-0.00031122,0.00034660,0.0000947
 1,0.00289218,0.01507685,0.00270609,0.00011545,0.00074399,0.00049512,-0
 .00139656,-0.01927079,-0.08224208,0.00094150,-0.00054846,0.00011508,-0
 .00000776,-0.02135546,0.55663589,-0.00313158,-0.00345708,0.00073046,0.
 00056563,0.00052888,0.00066834,-0.00833981,0.00120793,0.03832623,-0.00
 698761,-0.00330339,0.00206969,0.00055860,-0.00139639,0.00171971,-0.135
 03814,-0.02242939,0.05638071,-0.00023691,-0.00018728,-0.00019928,0.530
 86051,-0.00128390,0.00127270,0.00114973,0.00008198,0.00015585,0.001015
 72,-0.00894534,0.00719247,0.01171756,-0.00283118,-0.00054312,0.0007776
 4,-0.00111997,-0.00148009,0.00160288,-0.02275249,-0.07399550,-0.007078
 02,-0.00041174,-0.00083734,-0.00011397,0.20625215,0.13919759,0.0024858
 0,0.00143926,0.00000501,-0.00020996,0.00013804,0.00010360,0.00900570,-
 0.00181281,-0.01474812,0.00210067,0.00093595,0.00019395,-0.00061142,0.
 00234894,-0.00290074,0.04190730,-0.01305688,-0.21279735,0.00024358,0.0
 0025963,0.00024673,-0.08455330,0.03505844,0.37851242,-0.00003372,0.000
 03890,-0.00007751,-0.00002414,-0.00001790,-0.00002984,0.00018223,0.000
 07620,0.00070656,0.00009855,0.00006726,-0.00003807,-0.00103405,0.00019
 963,-0.00155673,0.00005277,-0.00023172,0.00078698,-0.04916007,0.004036
 84,0.02117756,-0.00013050,0.00029987,-0.00011093,0.04784686,-0.0001824
 5,0.00004083,0.00029408,-0.00013903,0.00023328,0.00009202,-0.00022101,
 0.00149792,-0.00136571,0.00023962,-0.00021959,0.00075020,0.00287772,-0
 .00805226,-0.03387709,0.00003415,-0.00031925,-0.00013163,0.00384091,-0
 .05579816,-0.04786263,-0.00002663,0.00004572,0.00006888,-0.00448289,0.
 06252390,0.00004915,-0.00015730,0.00035978,-0.00007580,0.00015361,-0.0
 0007238,-0.00032933,0.00046447,0.00050486,0.00045218,-0.00035766,0.000
 25515,0.00080751,-0.00168822,-0.00592060,-0.00043607,-0.00022609,-0.00
 039539,0.02117379,-0.04885055,-0.29077256,0.00014812,-0.00002962,0.000
 09509,-0.02348421,0.05573079,0.31682783,0.00012156,-0.00006280,-0.0002
 5149,-0.00000600,-0.00004982,-0.00001670,0.00041550,-0.00054325,0.0006
 7116,-0.00005574,0.00000944,-0.00012416,0.00062524,-0.00178081,0.00165
 700,0.00069903,-0.00054490,-0.00003815,-0.19132235,0.09112839,-0.09467
 307,-0.00018006,0.00013686,0.00004320,0.00267710,-0.00241441,0.0016242
 3,0.20603975,0.00156255,-0.00162961,0.00135861,0.00001914,0.00002710,0
 .00001906,-0.00250618,-0.00453800,-0.00280941,-0.00020383,0.00009947,0
 .00006444,0.02431933,-0.01666380,0.01695159,-0.00142081,-0.00095402,-0
 .00007370,0.08911283,-0.10056862,0.05823521,0.00035118,0.00018951,-0.0
 0022434,-0.00567767,0.00265090,-0.00264430,-0.09820358,0.11273681,0.00
 009446,-0.00026444,0.00045858,-0.00002834,0.00008373,0.00000768,-0.000
 09969,-0.00110890,0.00040203,0.00021733,-0.00024779,0.00031346,0.00518
 165,-0.00346749,0.00214208,-0.00015271,0.00017905,-0.00043764,-0.09457
 232,0.05947878,-0.10785653,0.00001534,-0.00011887,0.00013577,-0.023724
 04,0.01456145,-0.01432068,0.10405707,-0.06354773,0.11289108,0.00024657
 ,-0.00022505,0.00009566,-0.00005164,0.00000272,0.00000284,0.00016800,0
 .00020585,-0.00032061,-0.00001273,0.00005791,-0.00001401,-0.00075466,0
 .00063897,-0.00062339,-0.00050537,-0.00005792,-0.00012813,-0.24089201,
 -0.08400255,0.07493633,-0.00027271,0.00066758,-0.00004780,-0.00155239,
 0.00009704,0.00054141,-0.02021821,-0.00864186,0.00842190,0.26269432,0.
 00026846,0.00024010,-0.00030412,-0.00007324,-0.00007132,-0.00002501,-0
 .00117614,0.00114703,0.00023155,0.00005813,-0.00004392,-0.00001869,-0.
 02867035,-0.01011423,0.01178796,0.00120104,-0.00192330,0.00123320,-0.0
 8261235,-0.08382562,0.03165372,-0.00008753,0.00032767,-0.00032729,0.00
 625659,0.00178677,-0.00142143,0.01272003,0.00569129,-0.00616871,0.0918
 3751,0.09180274,-0.00015343,0.00000166,-0.00003613,0.00000352,-0.00000
 718,-0.00000749,0.00039239,0.00030652,0.00000427,0.00004084,-0.0000001
 3,0.00001855,-0.00629317,-0.00211416,0.00046777,-0.00016135,0.00092454
 ,0.00071944,0.07508180,0.03239605,-0.07570161,0.00008067,-0.00010930,-
 0.00019351,0.02749602,0.01177154,-0.00925954,-0.01366843,-0.00684499,0
 .00547212,-0.08214458,-0.03486254,0.07703179,-0.20480665,0.15911415,-0
 .16611938,0.00300396,-0.00680990,0.00915452,-0.00273827,-0.00963094,0.
 00238141,-0.00004096,0.00024598,0.00007921,0.00008056,0.00087150,0.000
 79491,0.00090737,-0.00189541,0.00082314,-0.00022834,-0.00011788,-0.000
 42759,0.00000048,0.00014348,-0.00015925,-0.00000597,0.00001976,0.00005
 276,0.00010209,0.00020070,0.00001598,0.00007731,0.00008716,0.00002061,
 0.20268548,0.12403827,-0.13253080,0.08464583,-0.00479836,0.00320980,-0
 .00322599,0.02447997,-0.02025819,0.02026198,0.00012216,0.00128431,-0.0
 0036812,-0.00230423,-0.00601254,-0.00295523,-0.00004805,-0.00068789,0.
 00140565,0.00176936,-0.00028155,0.00105812,0.00008463,0.00021942,-0.00
 021368,0.00001083,0.00001944,-0.00007624,0.00001776,-0.00065721,-0.000
 10568,-0.00006425,0.00004932,0.00004231,-0.14332175,0.15499438,-0.1341
 3308,0.08884214,-0.16345693,-0.02854898,0.02005654,-0.01989439,0.00836
 853,-0.00582574,0.00669241,0.00040532,0.00023516,0.00039049,-0.0003370
 8,-0.00198703,-0.00030852,0.00097830,0.00036860,0.00018605,0.00047134,
 -0.00040496,0.00068284,-0.00015672,-0.00019699,0.00006503,-0.00000498,
 0.00009448,-0.00004900,0.00003188,-0.00032594,-0.00001383,-0.00002872,
 -0.00000287,-0.00001290,0.15357368,-0.10044073,0.17568635,-0.00982992,
 -0.00913319,0.00016644,0.00065012,0.00037886,0.00063517,-0.01229239,-0
 .01896991,-0.03109388,0.00186668,0.00054390,-0.00068748,-0.00061459,-0
 .00431459,0.00291225,-0.32817980,-0.16611587,-0.22001685,-0.00038009,-
 0.00026076,-0.00070483,0.03256544,-0.00203257,-0.02127600,-0.00001857,
 0.00010030,0.00014189,-0.00020839,0.00041732,-0.00003290,-0.00025057,0
 .00007346,0.00001073,0.00049249,0.00076764,-0.00078966,0.31883356,0.00
 055849,0.00026114,0.00046775,0.00017418,0.00015782,0.00013824,-0.02455
 678,0.01227848,-0.01954342,0.00126022,-0.00006394,-0.00003897,-0.00263
 349,-0.00715258,0.00402863,-0.16816570,-0.18695703,-0.16226989,0.00006
 934,-0.00162509,0.00079131,-0.00226294,0.01777601,-0.04006327,-0.00012
 649,0.00016945,0.00026316,0.00027468,0.00061200,-0.00002479,0.00088081
 ,0.00039627,-0.00043735,0.00052602,0.00004312,-0.00010231,0.19601243,0
 .16719363,-0.00263927,-0.00205524,0.00163876,0.00089311,0.00125516,0.0
 0062423,-0.00349237,-0.00604877,0.00192760,-0.00114360,-0.00014666,0.0
 0257840,0.00141415,-0.00047575,0.00123928,-0.23988314,-0.16990803,-0.3
 5049505,0.00019089,-0.00012400,-0.00017841,-0.02453553,-0.04068329,-0.
 10595412,-0.00023516,0.00008716,0.00022613,0.00004183,0.00016856,0.000
 11843,-0.00009001,-0.00011518,-0.00021555,-0.00009336,-0.00002441,-0.0
 0044307,0.27778257,0.21867930,0.44216390,0.00059148,0.00001456,-0.0007
 2570,-0.00015273,-0.00020137,-0.00028786,0.00308856,0.00063492,0.00256
 133,-0.00037227,-0.00023900,0.00005114,0.00041631,0.00007151,-0.000303
 98,-0.01698015,-0.00620115,0.01338850,-0.00006619,-0.00014588,0.000103
 94,-0.40902730,-0.16776644,0.04997798,0.00005244,0.00000864,-0.0000242
 1,0.00008681,0.00001709,-0.00003342,0.00001869,0.00021733,-0.00002590,
 -0.00000537,-0.00007889,0.00006878,-0.00044532,0.00036966,-0.00786125,
 0.42273543,0.00059331,0.00106190,0.00048789,0.00015639,0.00024765,0.00
 006445,-0.00106499,0.00284402,-0.00155064,0.00011022,0.00034945,-0.000
 15711,-0.00042378,-0.00007661,0.00007811,0.00289066,0.00462830,0.00261
 200,0.00000888,0.00003595,0.00000666,-0.17636345,-0.09013356,0.0163172
 7,0.00000275,0.00001415,-0.00001155,-0.00001546,-0.00001209,0.00001034
 ,0.00001702,-0.00002436,0.00000239,-0.00002362,-0.00008488,0.00006652,
 0.00092771,-0.00503894,-0.00100752,0.17339731,0.08620544,-0.00077473,-
 0.00047944,0.00048966,0.00017066,0.00059301,0.00011796,0.00031355,-0.0
 0260000,-0.00636300,0.00140181,0.00051503,-0.00019545,-0.00027322,-0.0
 0001509,-0.00031694,0.05256580,0.02074788,-0.01131301,0.00004334,0.000
 04966,-0.00002171,0.00900665,-0.00235352,-0.04497122,-0.00002328,0.000
 04236,0.00003301,-0.00006151,-0.00001495,0.00000948,-0.00001683,-0.000
 12055,0.00002916,-0.00000428,0.00012224,0.00002059,-0.00559383,0.00009
 064,0.00621184,-0.05695480,-0.01657129,0.05559511,0.00111531,-0.001487
 90,0.00087109,-0.00006560,0.00042587,0.00037860,-0.00042307,-0.0022739
 5,-0.02592879,-0.00295332,0.00243946,-0.00204214,-0.05104472,0.0062539
 1,0.03028115,0.00181618,-0.00006785,-0.00142236,-0.00004114,-0.0008876
 4,-0.00207734,-0.00045004,0.00015193,0.00031164,0.00069300,-0.00047560
 ,-0.00011406,0.00004660,0.00003522,0.00035488,0.00025470,0.00022920,-0
 .00040838,0.00002607,-0.00030833,0.00015256,-0.00034401,-0.00019532,0.
 00016806,-0.00000770,-0.00012248,0.00022013,0.06083073,-0.00074927,0.0
 0148647,0.00032528,0.00034379,-0.00019744,-0.00033749,-0.00010575,0.00
 068164,0.01730643,0.00233409,-0.00125245,0.00160712,0.00561062,-0.0537
 9817,-0.03956374,-0.00067688,-0.00001409,-0.00032352,0.00332192,-0.009
 21237,-0.03350086,0.00021089,-0.00009276,0.00001190,-0.00031594,-0.006
 38367,-0.00133001,0.00034239,0.00136448,0.00054012,-0.00037678,0.00149
 318,0.00054184,-0.00015893,0.00017366,-0.00012664,0.00011567,0.0001658
 7,-0.00001106,-0.00000306,-0.00001375,-0.00004448,-0.00618282,0.063484
 25,0.00059303,-0.00052240,0.00174026,-0.00039713,0.00106370,0.00000578
 ,-0.00061878,-0.00193056,-0.01992054,-0.00251847,0.00150279,-0.0002322
 0,0.02925864,-0.03968764,-0.28444067,0.00145950,0.00076836,-0.00190521
 ,0.00038412,-0.00191666,-0.00465333,0.00047767,-0.00008181,0.00105131,
 -0.00009590,-0.00078652,0.00127990,0.00023492,-0.00030609,0.00055499,-
 0.00032189,-0.00024614,0.00043686,-0.00007481,-0.00008220,0.00044622,-
 0.00045647,-0.00033903,0.00050713,0.00001969,-0.00009506,0.00039744,-0
 .03198360,0.04262494,0.31105206,-0.00166715,-0.00047028,0.00018780,-0.
 00031933,0.00010479,0.00003598,-0.03336659,-0.00378439,0.00316090,0.00
 148121,-0.00091780,0.00100598,-0.15581496,-0.03216138,0.02731145,0.000
 21302,0.00381445,-0.00195893,-0.00542772,-0.00754243,0.00078957,-0.000
 19648,-0.00036621,0.00059631,0.00028425,0.00107155,0.00008951,0.000660
 81,0.00146712,-0.00000818,0.00089842,0.00141930,-0.00014703,0.00013832
 ,-0.00065909,-0.00007186,-0.00101258,-0.00116784,-0.00034329,0.0000358
 8,-0.00011422,0.00007921,-0.00665390,-0.00246358,0.00222822,0.47389885
 ,-0.00042343,-0.00013542,-0.00010015,0.00012441,0.00004067,-0.00009341
 ,0.01508090,0.00705196,-0.00520881,-0.00041999,0.00041238,-0.00019701,
 -0.02862713,-0.08752699,0.00922029,-0.00027031,-0.00488946,0.00242815,
 -0.03351413,-0.01832960,0.00995587,0.00096012,0.00073079,-0.00096583,-
 0.00010375,0.00151631,0.00038194,-0.00101132,0.00146398,0.00009821,-0.
 00132328,-0.00650071,-0.00113346,0.00018658,0.00013252,-0.00017487,0.0
 0172606,0.00224137,0.00044568,-0.00010098,0.00002555,0.00004850,0.0041
 3716,0.00139027,-0.00077717,-0.03207799,0.56705458,-0.00027667,0.00006
 435,0.00113988,-0.00014981,0.00008656,-0.00011151,-0.01769150,-0.00546
 092,0.00318647,-0.00106094,-0.00049995,0.00095588,0.02856035,0.0099037
 1,-0.08618351,0.00009154,0.00517160,-0.00336545,-0.00470252,-0.0012056
 1,0.00143824,-0.00020217,-0.00060267,0.00132677,-0.00099772,-0.0006959
 6,0.00066252,0.00035783,0.00048124,0.00008051,-0.00065843,-0.00167694,
 0.00042364,-0.00021284,-0.00013567,0.00011577,-0.00150320,-0.00216596,
 -0.00008054,0.00011985,-0.00025111,0.00020058,0.03037958,0.01183796,-0
 .00831977,0.02980301,0.00906150,0.54965901,-0.00029634,0.00032538,0.00
 043752,-0.00030959,0.00005473,0.00007781,0.00056485,-0.00077368,-0.000
 42973,-0.00009958,0.00012941,-0.00007306,-0.00122412,-0.02951140,-0.00
 652601,-0.00010065,-0.00032819,0.00016279,-0.00572654,-0.00082766,0.00
 195684,0.00013437,0.00008303,-0.00013103,-0.00001031,0.00020171,-0.000
 10243,0.00020115,0.00005653,0.00019996,-0.00025074,-0.00197629,-0.0001
 8120,0.00042234,0.00023817,-0.00008329,0.00023269,0.00012377,0.0001109
 4,-0.00001220,-0.00000802,-0.00000500,0.00123087,0.00059947,0.00006286
 ,-0.04697487,-0.01797368,-0.00285955,0.05066156,0.00239273,0.00021283,
 0.00023822,-0.00001624,-0.00003965,-0.00001452,0.00029017,-0.00109597,
 0.00025148,-0.00004085,-0.00001657,-0.00000618,-0.00064380,-0.00945599
 ,-0.00200951,0.00003213,0.00010592,-0.00015858,-0.00282381,0.00023505,
 0.00155538,-0.00003466,0.00000755,0.00001405,0.00009943,0.00015829,-0.
 00006843,0.00011480,0.00033115,-0.00004760,-0.00007095,-0.00077883,-0.
 00028669,0.00026694,0.00023254,-0.00002439,-0.00010300,-0.00013415,0.0
 0000827,0.00000263,-0.00000758,-0.00000415,-0.00007461,0.00049493,0.00
 032003,-0.02172252,-0.30402782,-0.04592732,0.02322826,0.33036107,0.000
 51038,-0.00004735,-0.00023386,0.00007899,-0.00002504,-0.00002171,-0.00
 028578,-0.00057801,0.00020306,0.00000509,-0.00003122,0.00000067,-0.000
 23567,0.00965776,0.00035766,-0.00008634,0.00003155,0.00001448,0.001647
 43,0.00048726,0.00009864,0.00000699,-0.00000367,-0.00002418,0.00010372
 ,0.00037721,0.00027638,0.00017272,-0.00035738,-0.00001980,0.00029570,0
 .00047749,0.00052300,0.00004349,0.00001926,-0.00004427,0.00004129,-0.0
 0000470,0.00001176,-0.00000864,0.00000847,0.00000040,-0.00070124,0.000
 11510,0.00036969,-0.00355771,-0.04568857,-0.05590527,0.00186562,0.0494
 9619,0.05579259,0.00040771,0.00003085,-0.00002892,-0.00000344,0.000010
 65,-0.00004140,-0.00501154,-0.00336121,0.00269842,0.00024322,-0.000211
 85,0.00006343,-0.02199248,0.01363315,-0.01604366,0.00086470,0.00264759
 ,-0.00127686,0.00106904,0.00150707,-0.00053260,-0.00056015,-0.00035435
 ,0.00058928,-0.00000535,-0.00009475,0.00002733,0.00031398,-0.00078474,
 0.00018960,0.00035673,0.00000122,0.00036853,-0.00005803,0.00000412,0.0
 0008657,-0.00103964,-0.00114730,-0.00019271,0.00004474,-0.00003731,0.0
 0001259,0.00111531,0.00040751,0.00029311,-0.17422573,0.08694683,-0.095
 93799,0.00206458,-0.00093484,0.00250572,0.19251541,0.00149250,0.000126
 89,0.00022518,0.00000039,0.00004451,-0.00000147,-0.00270344,-0.0013757
 4,0.00030766,0.00004756,-0.00013792,0.00016075,-0.00901911,0.00367614,
 -0.00654582,-0.00031358,0.00071772,-0.00037148,-0.00068346,0.00078962,
 -0.00054735,-0.00000751,-0.00004518,0.00011015,-0.00002806,-0.00005345
 ,0.00001933,-0.00012711,-0.00008158,0.00011849,0.00018647,0.00023317,-
 0.00003760,0.00017024,0.00008450,-0.00002980,-0.00012243,-0.00031972,-
 0.00001988,0.00000195,-0.00002989,0.00002336,0.00062173,0.00025175,-0.
 00015132,0.08866495,-0.10556048,0.06544128,0.02182090,-0.01311194,0.01
 728285,-0.09489782,0.11225884,-0.00003304,0.00011903,0.00001515,-0.000
 03674,-0.00000550,-0.00001083,0.00202306,0.00055519,0.00016979,0.00025
 431,-0.00008168,0.00032075,0.00759837,-0.00445700,0.00391970,-0.000134
 51,-0.00051543,0.00061052,-0.00007174,-0.00023550,0.00014740,-0.000025
 82,0.00001985,-0.00012508,-0.00002249,0.00006848,0.00001220,-0.0000778
 0,-0.00017940,0.00011953,0.00006001,-0.00021981,-0.00001015,0.00003332
 ,0.00004463,0.00000288,0.00021394,0.00030997,0.00003944,-0.00002907,-0
 .00000054,0.00002013,-0.00047389,-0.00050151,0.00070881,-0.09735214,0.
 06514498,-0.11825055,0.00529870,-0.00255341,0.00299059,0.10476829,-0.0
 7290101,0.12489669,-0.00005866,0.00014649,-0.00034220,0.00010278,-0.00
 015329,-0.00000548,0.00180667,-0.00005649,0.00178273,-0.00029216,0.000
 23279,-0.00062708,-0.00686106,0.00497132,0.03066763,0.00023681,-0.0002
 8461,0.00018966,0.00121837,0.00139564,0.00013557,-0.00013372,0.0000473
 1,-0.00016179,0.00008787,-0.00045463,-0.00054177,0.00000115,-0.0001203
 2,-0.00009658,0.00004629,0.00022648,-0.00031166,-0.00005290,0.00005004
 ,0.00001741,-0.00002511,0.00000626,-0.00009188,-0.00000112,0.00006909,
 -0.00010626,-0.00514525,-0.00225334,0.00145529,-0.05195145,0.00668395,
 0.03694118,-0.00050748,0.00003819,-0.00240175,0.00390093,-0.00510417,-
 0.02199275,0.05762804,0.00020325,-0.00022581,0.00042140,-0.00013472,-0
 .00004165,0.00002206,0.00047842,0.00019731,-0.00033447,0.00015112,0.00
 009648,-0.00018347,-0.00159577,0.00077807,0.01140537,0.00013481,-0.000
 04303,0.00007977,0.00019068,0.00076147,0.00106415,-0.00003953,0.000012
 29,-0.00003841,-0.00010388,0.00016941,-0.00015192,0.00000914,-0.000061
 76,0.00003183,0.00017076,0.00011477,-0.00015346,0.00012592,0.00007006,
 -0.00002117,-0.00001102,-0.00000373,-0.00002433,0.00000118,0.00000926,
 -0.00002921,-0.00221796,-0.00002179,0.00064277,0.00690555,-0.05508987,
 -0.04342607,0.00453757,-0.00347083,-0.03121721,-0.00336484,0.00253278,
 0.01538864,-0.00544069,0.05421657,0.00034751,-0.00021262,0.00007970,-0
 .00011115,0.00007416,-0.00000043,-0.00080079,0.00020981,0.00061355,0.0
 0061158,-0.00032693,0.00044546,0.00194174,-0.00129081,-0.00993400,-0.0
 0036613,-0.00028560,0.00025261,-0.00053253,-0.00043340,0.00067831,0.00
 004225,0.00002988,-0.00002136,0.00013003,0.00078090,0.00025729,0.00001
 948,0.00004952,-0.00005725,0.00004053,0.00012539,0.00031030,0.00011850
 ,0.00002792,-0.00006571,0.00025084,0.00022070,0.00007984,-0.00003640,-
 0.00000928,0.00005597,0.00203411,0.00082864,0.00092129,0.03815119,-0.0
 4244584,-0.28697267,0.00021825,-0.00078286,-0.00438982,0.00245126,-0.0
 0308332,-0.01557696,-0.04451025,0.04652373,0.31332389||-0.00001290,0.0
 0000671,0.00000966,-0.00000787,-0.00000666,0.00000571,-0.00003112,-0.0
 0001116,-0.00000054,0.00000156,0.00000644,0.00000161,0.00001480,-0.000
 00308,-0.00000215,0.00002895,0.00000562,-0.00001542,0.00000752,0.00000
 300,-0.00000397,0.00001347,0.00000140,0.00001452,0.00000678,0.00000667
 ,-0.00000689,0.00000971,0.00000045,-0.00000897,0.00000953,-0.00000264,
 -0.00000682,-0.00000880,-0.00000091,0.00000838,-0.00000417,-0.00000686
 ,0.00000067,-0.00002097,-0.00002892,0.00000537,0.00000162,-0.00000399,
 -0.00000158,-0.00000238,0.00000764,0.00000148,-0.00000668,0.00000611,0
 .00000317,0.00000275,0.00000843,-0.00000321,-0.00000178,0.00001174,-0.
 00000103|||@


 THERE ONCE WAS A GIRL NAMED IRENE,
 WHO LIVED ON DISTILLED KEROSENE,
      BUT SHE STARTED ABSORBIN'
      A NEW HYDROCARBON,
 AND SINCE THEN HAS NEVER BENZENE.
 Job cpu time:  0 days  1 hours  4 minutes 43.0 seconds.
 File lengths (MBytes):  RWF=    139 Int=      0 D2E=      0 Chk=      9 Scr=      1
 Normal termination of Gaussian 09 at Fri Apr 08 13:04:25 2016.
